 Gaussian 16, Revision A.03,
 Gaussian 16:  ES64L-G16RevA.03 25-Dec-2016

 ----------------------------------------------------------------------
 #p b3lyp/6-31g* em=gd3bj opt=(ts,calcfc,noeigen) freq scrf=(smd,solven
 t=benzene)
 ----------------------------------------------------------------------

 -------------------
 Title Card Required
 -------------------
 Symbolic Z-matrix:
 Charge =  0 Multiplicity = 1

 SCF Done:  E(RB3LYP) =  -305.908254954     A.U. after   12 cycles
 SCF Done:  E(RB3LYP) =  -305.945754023     A.U. after   11 cycles
 SCF Done:  E(RB3LYP) =  -305.962475474     A.U. after   11 cycles
 SCF Done:  E(RB3LYP) =  -305.977790919     A.U. after   11 cycles
 SCF Done:  E(RB3LYP) =  -305.972884570     A.U. after   11 cycles
 SCF Done:  E(RB3LYP) =  -305.941405805     A.U. after   11 cycles
 SCF Done:  E(RB3LYP) =  -305.922673599     A.U. after   11 cycles
 SCF Done:  E(RB3LYP) =  -305.919477705     A.U. after   12 cycles
 SCF Done:  E(RB3LYP) =  -305.923990522     A.U. after   12 cycles
 SCF Done:  E(RB3LYP) =  -305.933161397     A.U. after   11 cycles
 SCF Done:  E(RB3LYP) =  -305.956968897     A.U. after    9 cycles
 SCF Done:  E(RB3LYP) =  -305.956967878     A.U. after    8 cycles
 SCF Done:  E(RB3LYP) =  -305.956972821     A.U. after    8 cycles
 SCF Done:  E(RB3LYP) =  -305.956974180     A.U. after    8 cycles
 SCF Done:  E(RB3LYP) =  -305.956975054     A.U. after    8 cycles
 SCF Done:  E(RB3LYP) =  -305.956975484     A.U. after    8 cycles
 SCF Done:  E(RB3LYP) =  -305.956975371     A.U. after    8 cycles
 SCF Done:  E(RB3LYP) =  -305.956975610     A.U. after    8 cycles
 SCF Done:  E(RB3LYP) =  -305.956975574     A.U. after    7 cycles
 Optimization completed.
    -- Stationary point found.
 Normal termination of Gaussian 16 at Thu Oct 31 05:40:49 2019.

 --------------------------------------------------------------------
 #P Geom=AllCheck Guess=TCheck SCRF=Check GenChk RB3LYP/6-31G(d) Freq
 --------------------------------------------------------------------

 Structure from the checkpoint file:  "carbene.chk"
 -------------------
 Title Card Required
 -------------------
 Charge =  0 Multiplicity = 1

                         Standard orientation:
 ---------------------------------------------------------------------
 Center     Atomic      Atomic             Coordinates (Angstroms)
 Number     Number       Type             X           Y           Z
 ---------------------------------------------------------------------
      1          6           0        0.000018   -0.795139    0.258738
      2          6           0        0.679622    1.298652   -0.093271
      3          6           0       -0.679589    1.298653   -0.093351
      4          1           0        1.389135    2.100937   -0.219562
      5          1           0       -1.389098    2.100922   -0.219773
      6          7           0       -1.088820   -0.006498    0.148888
      7          7           0        1.088847   -0.006464    0.149069
      8          6           0       -2.426256   -0.549718   -0.020831
      9          1           0       -2.393572   -1.263526   -0.854695
     10          1           0       -2.750892   -1.062054    0.888239
     11          1           0       -3.116623    0.264627   -0.244326
     12          6           0        2.426217   -0.549766   -0.020926
     13          1           0        2.393538   -1.263067   -0.855220
     14          1           0        3.116695    0.264637   -0.243862
     15          1           0        2.750724   -1.062687    0.887859
     16          1           0       -0.000219   -2.328835   -1.556164
     17          1           0        0.000050   -1.876317    0.149646
 ---------------------------------------------------------------------

 SCF Done:  E(RB3LYP) =  -305.956975574     A.U. after    1 cycles

 The electronic state is 1-A.
 Alpha  occ. eigenvalues --  -14.40757 -14.40756 -10.25807 -10.23412 -10.23339
 Alpha  occ. eigenvalues --  -10.22652 -10.22652  -1.05194  -0.94075  -0.79315
 Alpha  occ. eigenvalues --   -0.75048  -0.70100  -0.62683  -0.60003  -0.54914
 Alpha  occ. eigenvalues --   -0.49249  -0.47374  -0.45798  -0.45591  -0.45045
 Alpha  occ. eigenvalues --   -0.44320  -0.40563  -0.40213  -0.38854  -0.29313
 Alpha  occ. eigenvalues --   -0.25517  -0.13408
 Alpha virt. eigenvalues --    0.00446   0.02820   0.09349   0.10562   0.12647
 Alpha virt. eigenvalues --    0.14057   0.14375   0.15246   0.15260   0.17290
 Alpha virt. eigenvalues --    0.17919   0.18848   0.19592   0.24239   0.25293

 Mulliken charges:
               1
     1  C    0.308311
     2  C    0.008039
     3  C    0.008048
     4  H    0.195497
     5  H    0.195502
     6  N   -0.391613
     7  N   -0.391625
     8  C   -0.328053
     9  H    0.207139
    10  H    0.189438
    11  H    0.181231
    12  C   -0.328051
    13  H    0.207145
    14  H    0.181226
    15  H    0.189443
    16  H   -0.652197
    17  H    0.220521
 Sum of Mulliken charges =  -0.00000

 Dipole moment (field-independent basis, Debye):
    X=              0.0006    Y=              6.3385    Z=              4.3609  Tot=              7.6938
 Quadrupole moment (field-independent basis, Debye-Ang):
   XX=            -28.9972   YY=            -53.4122   ZZ=            -53.3352
   XY=             -0.0021   XZ=             -0.0011   YZ=            -12.5321

  Exact polarizability:  96.877   0.004 101.972   0.003  18.833  62.988
 Approx polarizability: 117.575   0.006 136.217   0.007  30.260  91.851

 ******    1 imaginary frequencies (negative Signs) ******

                      1                      2                      3
                      A                      A                      A
 Frequencies --   -637.4357               136.7811               137.8257
 Red. masses --      1.0501                 1.3308                 1.0579
 Frc consts  --      0.2514                 0.0147                 0.0118
 IR Inten    --    322.5993                23.9284                 0.2967

                      4                      5                      6
                      A                      A                      A
 Frequencies --    165.7182               255.4801               285.7358
 Red. masses --      1.9507                 2.2670                 2.5631
 Frc consts  --      0.0316                 0.0872                 0.1233
 IR Inten    --     29.3684               157.8654                10.2405

                      7                      8                      9
                      A                      A                      A
 Frequencies --    355.8341               395.7057               453.9316
 Red. masses --      1.3836                 1.2466                 2.0913
 Frc consts  --      0.1032                 0.1150                 0.2539
 IR Inten    --    309.8533               200.2062                85.6794

                     10                     11                     12
                      A                      A                      A
 Frequencies --    611.8305               625.8438               675.4389
 Red. masses --      3.9383                 4.3021                 2.2776
 Frc consts  --      0.8686                 0.9928                 0.6122
 IR Inten    --      1.2651                14.0788                64.0269

                     13                     14                     15
                      A                      A                      A
 Frequencies --    716.6166               743.5239               776.9154
 Red. masses --      1.4873                 4.2477                 1.1239
 Frc consts  --      0.4500                 1.3836                 0.3997
 IR Inten    --     21.7843                 0.5442              1339.5711

                     16                     17                     18
                      A                      A                      A
 Frequencies --    808.2670              1039.0278              1043.8070
 Red. masses --      1.2987                 4.3970                 2.6432
 Frc consts  --      0.4999                 2.7968                 1.6968
 IR Inten    --      1.8160                 2.5256                23.1896

                     19                     20                     21
                      A                      A                      A
 Frequencies --   1116.5878              1127.0910              1128.3143
 Red. masses --      1.3736                 1.6322                 1.2951
 Frc consts  --      1.0090                 1.2216                 0.9715
 IR Inten    --     52.0847                 1.8722                 9.1736

                     22                     23                     24
                      A                      A                      A
 Frequencies --   1168.5317              1172.4755              1227.7867
 Red. masses --      1.3001                 1.3068                 1.8016
 Frc consts  --      1.0460                 1.0585                 1.6002
 IR Inten    --      0.1833                 0.1939               115.9949

                     25                     26                     27
                      A                      A                      A
 Frequencies --   1319.1679              1389.7432              1394.5156
 Red. masses --      1.2730                 9.2323                 3.8371
 Frc consts  --      1.3053                10.5058                 4.3964
 IR Inten    --      6.8560                21.1408                 0.0230

                     28                     29                     30
                      A                      A                      A
 Frequencies --   1441.1803              1465.8357              1481.4440
 Red. masses --      3.6227                 1.2376                 1.1836
 Frc consts  --      4.4332                 1.5667                 1.5304
 IR Inten    --     85.4501                 8.0488                 4.3090

                     31                     32                     33
                      A                      A                      A
 Frequencies --   1501.4860              1503.3636              1536.8941
 Red. masses --      1.0489                 1.0514                 1.0631
 Frc consts  --      1.3932                 1.4001                 1.4795
 IR Inten    --      4.0505                15.2154                 4.8375

                     34                     35                     36
                      A                      A                      A
 Frequencies --   1541.2667              1592.3882              1613.1958
 Red. masses --      1.1318                 3.0943                 4.3802
 Frc consts  --      1.5840                 4.6228                 6.7162
 IR Inten    --     54.3142                84.7681                20.8083

                     37                     38                     39
                      A                      A                      A
 Frequencies --   3047.6036              3048.1563              3134.7079
 Red. masses --      1.0431                 1.0430                 1.0958
 Frc consts  --      5.7079                 5.7097                 6.3444
 IR Inten    --     11.8860                97.0977                 4.6515

                     40                     41                     42
                      A                      A                      A
 Frequencies --   3134.9998              3180.8382              3180.9848
 Red. masses --      1.0957                 1.1044                 1.1047
 Frc consts  --      6.3450                 6.5837                 6.5858
 IR Inten    --     12.2692                13.6632                 1.8088

                     43                     44                     45
                      A                      A                      A
 Frequencies --   3198.5758              3303.7053              3322.3152
 Red. masses --      1.1010                 1.0916                 1.1092
 Frc consts  --      6.6365                 7.0197                 7.2131
 IR Inten    --     80.9524                 5.8540                 0.7761

 - Thermochemistry -
 -------------------
 Temperature   298.150 Kelvin.  Pressure   1.00000 Atm.
 Atom     1 has atomic number  6 and mass  12.00000

 Molecular mass:    98.08440 amu.
 Principal axes and moments of inertia in atomic units:
                           1         2         3
     Eigenvalues --   307.20605 868.033671123.53954
           X            1.00000   0.00000  -0.00000
           Y           -0.00000   0.99932   0.03690
           Z            0.00000  -0.03690   0.99932
 This molecule is an asymmetric top.
 Rotational symmetry number  1.
 Rotational temperatures (Kelvin)      0.28194     0.09978     0.07709
 Rotational constants (GHZ):           5.87469     2.07911     1.60630
    1 imaginary frequencies ignored.
 Zero-point vibrational energy     373841.6 (Joules/Mol)
                                   89.35029 (Kcal/Mol)
 Warning -- explicit consideration of   9 degrees of freedom as
           vibrations may cause significant error
 Vibrational temperatures:    196.80   198.30   238.43   367.58   411.11
          (Kelvin)            511.97   569.33   653.11   880.29   900.45
                              971.81  1031.05  1069.77  1117.81  1162.92
                             1494.93  1501.81  1606.52  1621.63  1623.39
                             1681.26  1686.93  1766.51  1897.99  1999.53
                             2006.40  2073.54  2109.01  2131.47  2160.30
                             2163.00  2211.25  2217.54  2291.09  2321.03
                             4384.82  4385.62  4510.15  4510.57  4576.52
                             4576.73  4602.04  4753.30  4780.07

 Zero-point correction=                           0.142389 (Hartree/Particle)
 Thermal correction to Energy=                    0.150053
 Thermal correction to Enthalpy=                  0.150997
 Thermal correction to Gibbs Free Energy=         0.111141
 Sum of electronic and zero-point Energies=           -305.814587
 Sum of electronic and thermal Energies=              -305.806923
 Sum of electronic and thermal Enthalpies=            -305.805979
 Sum of electronic and thermal Free Energies=         -305.845834

                     E (Thermal)             CV                S
                      KCal/Mol        Cal/Mol-Kelvin    Cal/Mol-Kelvin
 Total                   94.160             28.343             83.884
 Electronic               0.000              0.000              0.000
 Translational            0.889              2.981             39.660
 Rotational               0.889              2.981             27.196
 Vibrational             92.382             22.382             17.027
 Vibration     1          0.614              1.917              2.848
 Vibration     2          0.614              1.916              2.834
 Vibration     3          0.624              1.885              2.483
 Vibration     4          0.666              1.754              1.692
 Vibration     5          0.684              1.700              1.499
 Vibration     6          0.731              1.563              1.140
 Vibration     7          0.762              1.479              0.979
 Vibration     8          0.812              1.352              0.784
 Vibration     9          0.971              1.007              0.430

 Optimization completed.
    -- Stationary point found.
 Normal termination of Gaussian 16 at Thu Oct 31 05:41:27 2019.
