 Gaussian 16, Revision A.03,
 Gaussian 16:  ES64L-G16RevA.03 25-Dec-2016

 ----------------------------------------------------------------------
 #p irc=(calcfc,maxpoint=30) b3lyp/6-31g(d) scrf=(smd,solvent=benzene)
 em=gd3bj
 ----------------------------------------------------------------------

 -------------------
 Title Card Required
 -------------------
 Symbolic Z-matrix:
 Charge =  0 Multiplicity = 1

 SCF Done:  E(RB3LYP) =  -305.956975574     A.U. after   12 cycles
 SCF Done:  E(RB3LYP) =  -305.957053653     A.U. after   10 cycles
 SCF Done:  E(RB3LYP) =  -305.957249430     A.U. after   10 cycles
 SCF Done:  E(RB3LYP) =  -305.957548844     A.U. after   10 cycles
 SCF Done:  E(RB3LYP) =  -305.958013366     A.U. after   10 cycles
 SCF Done:  E(RB3LYP) =  -305.958584878     A.U. after   10 cycles
 SCF Done:  E(RB3LYP) =  -305.959282120     A.U. after   10 cycles
 SCF Done:  E(RB3LYP) =  -305.960132042     A.U. after   10 cycles
 SCF Done:  E(RB3LYP) =  -305.961163375     A.U. after   10 cycles
 SCF Done:  E(RB3LYP) =  -305.962464105     A.U. after   10 cycles
 SCF Done:  E(RB3LYP) =  -305.992546571     A.U. after   10 cycles
 SCF Done:  E(RB3LYP) =  -305.996704905     A.U. after   10 cycles
 SCF Done:  E(RB3LYP) =  -306.001025412     A.U. after   10 cycles
 SCF Done:  E(RB3LYP) =  -306.005480505     A.U. after    9 cycles
 SCF Done:  E(RB3LYP) =  -306.010087683     A.U. after    9 cycles
 SCF Done:  E(RB3LYP) =  -306.014722287     A.U. after    9 cycles
 SCF Done:  E(RB3LYP) =  -306.019062085     A.U. after    9 cycles
 SCF Done:  E(RB3LYP) =  -306.022723809     A.U. after    9 cycles
 SCF Done:  E(RB3LYP) =  -306.025327530     A.U. after    9 cycles
 SCF Done:  E(RB3LYP) =  -306.026768914     A.U. after    9 cycles

                          Input orientation:
 ---------------------------------------------------------------------
 Center     Atomic      Atomic             Coordinates (Angstroms)
 Number     Number       Type             X           Y           Z
 ---------------------------------------------------------------------
      1          6           0       -0.000001   -0.933788    0.086932
      2          6           0        0.673134    1.254332   -0.133996
      3          6           0       -0.673104    1.254335   -0.134046
      4          1           0        1.377618    2.064888   -0.246507
      5          1           0       -1.377576    2.064896   -0.246595
      6          7           0       -1.116813   -0.045422    0.163920
      7          7           0        1.116819   -0.045432    0.164025
      8          6           0       -2.423044   -0.587055   -0.050462
      9          1           0       -2.433505   -1.283785   -0.909590
     10          1           0       -2.772805   -1.138770    0.834521
     11          1           0       -3.133161    0.219353   -0.253271
     12          6           0        2.423015   -0.587091   -0.050531
     13          1           0        2.433497   -1.283410   -0.909999
     14          1           0        3.133230    0.219351   -0.252857
     15          1           0        2.772620   -1.139270    0.834220
     16          1           0        0.000038   -1.496282   -0.898882
     17          1           0       -0.000035   -1.728678    0.860170
 ---------------------------------------------------------------------

 Alpha  occ. eigenvalues --  -14.32698 -14.32698 -10.23070 -10.20326 -10.20326
 Alpha  occ. eigenvalues --  -10.18701 -10.18622  -0.97795  -0.88228  -0.75287
 Alpha  occ. eigenvalues --   -0.71094  -0.66264  -0.57737  -0.56953  -0.50988
 Alpha  occ. eigenvalues --   -0.47287  -0.43610  -0.43379  -0.42269  -0.40826
 Alpha  occ. eigenvalues --   -0.39781  -0.38041  -0.37485  -0.35749  -0.30347
 Alpha  occ. eigenvalues --   -0.24280  -0.13402
 Alpha virt. eigenvalues --    0.06827   0.10168   0.11283   0.12305   0.15496
 Alpha virt. eigenvalues --    0.15697   0.16618   0.17484   0.18058   0.18065
 Alpha virt. eigenvalues --    0.18625   0.20813   0.21696   0.25687   0.27748

 Mulliken charges:
               1
     1  C    0.087172
     2  C   -0.021288
     3  C   -0.021266
     4  H    0.151523
     5  H    0.151527
     6  N   -0.415969
     7  N   -0.415971
     8  C   -0.309859
     9  H    0.135394
    10  H    0.154561
    11  H    0.162534
    12  C   -0.309855
    13  H    0.135378
    14  H    0.162533
    15  H    0.154565
    16  H    0.064753
    17  H    0.134269
 Sum of Mulliken charges =  -0.00000

 Dipole moment (field-independent basis, Debye):
    X=             -0.0003    Y=             -0.2965    Z=             -0.4262  Tot=              0.5192
 Quadrupole moment (field-independent basis, Debye-Ang):
   XX=            -36.9515   YY=            -41.0670   ZZ=            -46.5525
   XY=              0.0000   XZ=              0.0002   YZ=             -1.3574

  Exact polarizability:   0.000   0.000   0.000   0.000   0.000   0.000
 Approx polarizability: 118.821   0.001  94.451  -0.001  -0.919  65.594

 Normal termination of Gaussian 16 at Thu Oct 31 05:58:09 2019.
