 Gaussian 16, Revision A.03,
 Gaussian 16:  ES64L-G16RevA.03 25-Dec-2016

 ----------------------------------------------------------------------
 #p irc=(calcfc,lqa,stepsize=15,maxpoint=40) b3lyp/6-31g(d) scrf=(smd,s
 olvent=benzene) em=gd3bj
 ----------------------------------------------------------------------

 -------------------
 Title Card Required
 -------------------
 Symbolic Z-matrix:
 Charge =  0 Multiplicity = 1

 SCF Done:  E(RB3LYP) =  -305.956975574     A.U. after   12 cycles
 SCF Done:  E(RB3LYP) =  -305.957139573     A.U. after   10 cycles
 SCF Done:  E(RB3LYP) =  -305.957545167     A.U. after   10 cycles
 SCF Done:  E(RB3LYP) =  -305.958276674     A.U. after   10 cycles
 SCF Done:  E(RB3LYP) =  -305.959263140     A.U. after   10 cycles
 SCF Done:  E(RB3LYP) =  -305.960580419     A.U. after   10 cycles
 SCF Done:  E(RB3LYP) =  -305.962366251     A.U. after   10 cycles
 SCF Done:  E(RB3LYP) =  -305.964861546     A.U. after   10 cycles
 SCF Done:  E(RB3LYP) =  -305.968269837     A.U. after   10 cycles
 SCF Done:  E(RB3LYP) =  -305.972535076     A.U. after   10 cycles
 SCF Done:  E(RB3LYP) =  -306.033436374     A.U. after    9 cycles
 SCF Done:  E(RB3LYP) =  -306.033813614     A.U. after    9 cycles
 SCF Done:  E(RB3LYP) =  -306.034098676     A.U. after    9 cycles
 SCF Done:  E(RB3LYP) =  -306.034454948     A.U. after    9 cycles
 SCF Done:  E(RB3LYP) =  -306.034764219     A.U. after    9 cycles
 SCF Done:  E(RB3LYP) =  -306.035032702     A.U. after    9 cycles
 SCF Done:  E(RB3LYP) =  -306.035257845     A.U. after    9 cycles
 SCF Done:  E(RB3LYP) =  -306.035349599     A.U. after    9 cycles
 SCF Done:  E(RB3LYP) =  -306.035544159     A.U. after    9 cycles
 SCF Done:  E(RB3LYP) =  -306.035729668     A.U. after    9 cycles

                          Input orientation:
 ---------------------------------------------------------------------
 Center     Atomic      Atomic             Coordinates (Angstroms)
 Number     Number       Type             X           Y           Z
 ---------------------------------------------------------------------
      1          6           0        0.000056   -0.938059    0.171066
      2          6           0        0.671089    1.203501   -0.200157
      3          6           0       -0.671140    1.203361   -0.200408
      4          1           0        1.358186    2.017364   -0.385968
      5          1           0       -1.358289    2.017115   -0.386477
      6          7           0       -1.142834   -0.036062    0.305398
      7          7           0        1.142934   -0.035859    0.305933
      8          6           0       -2.415887   -0.555491   -0.148189
      9          1           0       -2.387309   -0.926615   -1.189211
     10          1           0       -2.731944   -1.379252    0.499824
     11          1           0       -3.172244    0.231835   -0.083416
     12          6           0        2.415766   -0.555223   -0.148326
     13          1           0        2.387235   -0.919463   -1.192687
     14          1           0        3.174090    0.228960   -0.078279
     15          1           0        2.729960   -1.387062    0.494255
     16          1           0        0.000137   -1.422883   -0.841921
     17          1           0        0.000178   -1.724390    0.933006
 ---------------------------------------------------------------------

 Alpha  occ. eigenvalues --  -14.33138 -14.33136 -10.23165 -10.20148 -10.20124
 Alpha  occ. eigenvalues --  -10.18936 -10.18854  -0.97179  -0.88006  -0.74674
 Alpha  occ. eigenvalues --   -0.70732  -0.65916  -0.58169  -0.56299  -0.50640
 Alpha  occ. eigenvalues --   -0.47502  -0.43454  -0.43207  -0.42249  -0.39755
 Alpha  occ. eigenvalues --   -0.39684  -0.37872  -0.37121  -0.35341  -0.30301
 Alpha  occ. eigenvalues --   -0.24952  -0.15417
 Alpha virt. eigenvalues --    0.05222   0.10225   0.11223   0.13380   0.15401
 Alpha virt. eigenvalues --    0.15651   0.16281   0.17560   0.18117   0.18302
 Alpha virt. eigenvalues --    0.18690   0.20273   0.21504   0.24618   0.25626

 Mulliken charges:
               1
     1  C    0.051263
     2  C   -0.021580
     3  C   -0.021497
     4  H    0.151145
     5  H    0.151189
     6  N   -0.419187
     7  N   -0.418990
     8  C   -0.309272
     9  H    0.131706
    10  H    0.159199
    11  H    0.162426
    12  C   -0.309264
    13  H    0.131394
    14  H    0.162672
    15  H    0.158753
    16  H    0.086877
    17  H    0.153168
 Sum of Mulliken charges =  -0.00000

 Dipole moment (field-independent basis, Debye):
    X=             -0.0041    Y=             -0.5460    Z=             -1.0149  Tot=              1.1525
 Quadrupole moment (field-independent basis, Debye-Ang):
   XX=            -37.5648   YY=            -40.2135   ZZ=            -47.0382
   XY=             -0.0003   XZ=              0.0008   YZ=             -1.7788

  Exact polarizability:   0.000   0.000   0.000   0.000   0.000   0.000
 Approx polarizability: 118.900  -0.005  90.886   0.003  -2.799  69.038

 Normal termination of Gaussian 16 at Thu Oct 31 06:18:10 2019.
