 Gaussian 16, Revision A.03,
 Gaussian 16:  ES64L-G16RevA.03 25-Dec-2016

 ------------------------------------------------------------
 #p irc=(lqa,calcfc,maxpoint=30,stepsize=15) b3lyp/6-311+g(d)
 ------------------------------------------------------------

 -------------------
 Title Card Required
 -------------------
 Symbolic Z-matrix:
 Charge =  0 Multiplicity = 1

 SCF Done:  E(RB3LYP) =  -268.372548685     A.U. after   13 cycles
 SCF Done:  E(RB3LYP) =  -268.372893472     A.U. after   12 cycles
 SCF Done:  E(RB3LYP) =  -268.373798610     A.U. after   11 cycles
 SCF Done:  E(RB3LYP) =  -268.374914184     A.U. after   11 cycles
 SCF Done:  E(RB3LYP) =  -268.376174202     A.U. after   11 cycles
 SCF Done:  E(RB3LYP) =  -268.377430327     A.U. after   11 cycles
 SCF Done:  E(RB3LYP) =  -268.378759549     A.U. after   11 cycles
 SCF Done:  E(RB3LYP) =  -268.380141554     A.U. after   11 cycles
 SCF Done:  E(RB3LYP) =  -268.381495101     A.U. after   11 cycles
 SCF Done:  E(RB3LYP) =  -268.382789400     A.U. after   11 cycles
 SCF Done:  E(RB3LYP) =  -268.429563836     A.U. after   10 cycles
 SCF Done:  E(RB3LYP) =  -268.429922019     A.U. after   10 cycles
 SCF Done:  E(RB3LYP) =  -268.430233232     A.U. after   10 cycles
 SCF Done:  E(RB3LYP) =  -268.430491966     A.U. after   11 cycles
 SCF Done:  E(RB3LYP) =  -268.430713605     A.U. after   11 cycles
 SCF Done:  E(RB3LYP) =  -268.430909860     A.U. after   11 cycles
 SCF Done:  E(RB3LYP) =  -268.431110493     A.U. after   11 cycles
 SCF Done:  E(RB3LYP) =  -268.431314767     A.U. after   11 cycles
 SCF Done:  E(RB3LYP) =  -268.431511436     A.U. after   10 cycles
 SCF Done:  E(RB3LYP) =  -268.431699585     A.U. after   11 cycles

                          Input orientation:
 ---------------------------------------------------------------------
 Center     Atomic      Atomic             Coordinates (Angstroms)
 Number     Number       Type             X           Y           Z
 ---------------------------------------------------------------------
      1          6           0       -1.348308    0.227523    0.139662
      2          1           0       -2.271068    0.741509    0.493528
      3          8           0       -1.333266   -0.982482    0.066687
      4          6           0       -0.168997    1.097784   -0.230159
      5          1           0       -0.123609    1.146298   -1.327185
      6          1           0       -0.334286    2.117983    0.131942
      7          6           0        1.167671    0.546738    0.299634
      8          1           0        1.969433    1.240536    0.040403
      9          1           0        1.126547    0.488137    1.396435
     10          8           0        1.523088   -0.700690   -0.260699
     11          1           0        0.783408   -1.311413   -0.146147
 ---------------------------------------------------------------------

 Alpha  occ. eigenvalues --  -19.14960 -19.12140 -10.28682 -10.23384 -10.19978
 Alpha  occ. eigenvalues --   -1.08005  -1.02942  -0.79457  -0.67512  -0.59478
 Alpha  occ. eigenvalues --   -0.52549  -0.51272  -0.47101  -0.44294  -0.43818
 Alpha  occ. eigenvalues --   -0.42116  -0.38656  -0.34876  -0.28540  -0.27837
 Alpha virt. eigenvalues --   -0.06262  -0.00161   0.02302   0.02536   0.02817
 Alpha virt. eigenvalues --    0.05416   0.05682   0.06850   0.07676   0.08758
 Alpha virt. eigenvalues --    0.11046   0.11415   0.14362   0.14485   0.15837

 Mulliken charges:
               1
     1  C    0.112048
     2  H    0.200850
     3  O   -0.280119
     4  C   -0.572653
     5  H    0.297213
     6  H    0.247624
     7  C   -0.464872
     8  H    0.249174
     9  H    0.226463
    10  O   -0.378158
    11  H    0.362431
 Sum of Mulliken charges =   0.00000

 Dipole moment (field-independent basis, Debye):
    X=             -1.2957    Y=              3.1705    Z=              0.6902  Tot=              3.4939
 Quadrupole moment (field-independent basis, Debye-Ang):
   XX=            -34.8698   YY=            -30.3842   ZZ=            -30.3578
   XY=             -0.7937   XZ=              1.1721   YZ=             -0.2564

  Exact polarizability:   0.000   0.000   0.000   0.000   0.000   0.000
 Approx polarizability:  56.242  -0.169  71.074  -2.587   2.094  49.213

 Normal termination of Gaussian 16 at Tue Oct 15 21:04:40 2019.
