 Gaussian 16, Revision A.03,
 Gaussian 16:  ES64L-G16RevA.03 25-Dec-2016

 ----------------------------
 #p opt freq b3lyp/6-311+g(d)
 ----------------------------

 -------------------
 Title Card Required
 -------------------
 Symbolic Z-matrix:
 Charge =  0 Multiplicity = 1

 SCF Done:  E(RB3LYP) =  -268.431699874     A.U. after   12 cycles
 SCF Done:  E(RB3LYP) =  -268.431725481     A.U. after   12 cycles
 SCF Done:  E(RB3LYP) =  -268.432321589     A.U. after   11 cycles
 SCF Done:  E(RB3LYP) =  -268.433229646     A.U. after   11 cycles
 SCF Done:  E(RB3LYP) =  -268.434012651     A.U. after   12 cycles
 SCF Done:  E(RB3LYP) =  -268.434257121     A.U. after   11 cycles
 SCF Done:  E(RB3LYP) =  -268.434298352     A.U. after   10 cycles
 SCF Done:  E(RB3LYP) =  -268.434303488     A.U. after    9 cycles
 SCF Done:  E(RB3LYP) =  -268.434303931     A.U. after    8 cycles
 Optimization completed.
    -- Stationary point found.
 Normal termination of Gaussian 16 at Tue Oct 15 21:36:42 2019.

 ----------------------------------------------------------------------
 #P Geom=AllCheck Guess=TCheck SCRF=Check GenChk RB3LYP/6-311+G(d) Freq
 ----------------------------------------------------------------------

 Structure from the checkpoint file:  "irc32p.chk"
 -------------------
 Title Card Required
 -------------------
 Charge =  0 Multiplicity = 1

                         Standard orientation:
 ---------------------------------------------------------------------
 Center     Atomic      Atomic             Coordinates (Angstroms)
 Number     Number       Type             X           Y           Z
 ---------------------------------------------------------------------
      1          6           0       -1.357677    0.216570   -0.121920
      2          1           0       -2.295969    0.715656   -0.443538
      3          8           0       -1.380656   -0.945448    0.214054
      4          6           0       -0.115170    1.069144   -0.152734
      5          1           0        0.046784    1.374326   -1.196049
      6          1           0       -0.327093    1.998737    0.394613
      7          6           0        1.126372    0.371291    0.402141
      8          1           0        1.980711    1.049267    0.360643
      9          1           0        0.964186    0.107010    1.455050
     10          8           0        1.492722   -0.772185   -0.353922
     11          1           0        0.813701   -1.445969   -0.216695
 ---------------------------------------------------------------------

 SCF Done:  E(RB3LYP) =  -268.434303931     A.U. after    1 cycles

 The electronic state is 1-A.
 Alpha  occ. eigenvalues --  -19.14666 -19.12293 -10.28356 -10.22911 -10.19863
 Alpha  occ. eigenvalues --   -1.07789  -1.02863  -0.79485  -0.67677  -0.58702
 Alpha  occ. eigenvalues --   -0.52726  -0.50776  -0.46891  -0.45999  -0.42823
 Alpha  occ. eigenvalues --   -0.41283  -0.38611  -0.34592  -0.28889  -0.27720
 Alpha virt. eigenvalues --   -0.05290  -0.00270   0.01785   0.02508   0.03228
 Alpha virt. eigenvalues --    0.05186   0.05585   0.06671   0.08320   0.08478
 Alpha virt. eigenvalues --    0.10865   0.11607   0.14302   0.15560   0.16242

 Mulliken charges:
               1
     1  C    0.086791
     2  H    0.198762
     3  O   -0.285049
     4  C   -0.566966
     5  H    0.291377
     6  H    0.257767
     7  C   -0.432336
     8  H    0.247058
     9  H    0.232625
    10  O   -0.387659
    11  H    0.357631
 Sum of Mulliken charges =  -0.00000

 Dipole moment (field-independent basis, Debye):
    X=             -1.1073    Y=              2.9188    Z=              0.3062  Tot=              3.1368
 Quadrupole moment (field-independent basis, Debye-Ang):
   XX=            -34.9951   YY=            -29.7744   ZZ=            -30.6402
   XY=             -1.0973   XZ=              2.8047   YZ=              0.0553

  Exact polarizability:  45.596  -0.090  48.209   1.446  -2.102  36.396
 Approx polarizability:  54.512   1.067  71.279  -0.015  -4.645  50.460

                      1                      2                      3
                      A                      A                      A
 Frequencies --    130.3968               173.8411               248.5834
 Red. masses --      3.1181                 2.8107                 2.3870
 Frc consts  --      0.0312                 0.0500                 0.0869
 IR Inten    --     12.3828                 0.3990                 8.6417

                      4                      5                      6
                      A                      A                      A
 Frequencies --    399.1750               505.0745               637.2485
 Red. masses --      3.0009                 1.0826                 1.7438
 Frc consts  --      0.2817                 0.1627                 0.4172
 IR Inten    --     10.0884               162.6161                 8.2834

                      7                      8                      9
                      A                      A                      A
 Frequencies --    773.1780               841.9559               949.9161
 Red. masses --      2.0680                 2.9876                 1.7808
 Frc consts  --      0.7284                 1.2478                 0.9467
 IR Inten    --      1.5527                13.2022                 7.9755

                     10                     11                     12
                      A                      A                      A
 Frequencies --    961.4442              1079.5102              1101.6594
 Red. masses --      1.6127                 2.5563                 2.4811
 Frc consts  --      0.8783                 1.7551                 1.7741
 IR Inten    --     20.0347               105.5118                12.1979

                     13                     14                     15
                      A                      A                      A
 Frequencies --   1215.9722              1256.6416              1381.7279
 Red. masses --      1.2420                 1.2706                 1.7882
 Frc consts  --      1.0820                 1.1822                 2.0114
 IR Inten    --     17.1833                19.4359                21.6455

                     16                     17                     18
                      A                      A                      A
 Frequencies --   1397.8630              1420.0669              1431.1447
 Red. masses --      1.1897                 1.1822                 1.1625
 Frc consts  --      1.3697                 1.4046                 1.4029
 IR Inten    --      0.7459                35.7900                17.9396

                     19                     20                     21
                      A                      A                      A
 Frequencies --   1448.5452              1514.1914              1790.4705
 Red. masses --      1.1605                 1.0818                 9.4457
 Frc consts  --      1.4348                 1.4614                17.8410
 IR Inten    --     34.4555                 2.1987               166.3293

                     22                     23                     24
                      A                      A                      A
 Frequencies --   2904.2206              3009.6431              3010.5959
 Red. masses --      1.0839                 1.0646                 1.0701
 Frc consts  --      5.3865                 5.6818                 5.7146
 IR Inten    --    125.1560                21.0923                39.4381

                     25                     26                     27
                      A                      A                      A
 Frequencies --   3038.9596              3097.5223              3756.3805
 Red. masses --      1.0957                 1.0955                 1.0658
 Frc consts  --      5.9623                 6.1930                 8.8606
 IR Inten    --     29.4029                30.0945                35.8606

 - Thermochemistry -
 -------------------
 Temperature   298.150 Kelvin.  Pressure   1.00000 Atm.
 Atom     1 has atomic number  6 and mass  12.00000

 Molecular mass:    74.03678 amu.
 Principal axes and moments of inertia in atomic units:
                           1         2         3
     Eigenvalues --   208.55898 442.29585 585.37568
           X            0.99951  -0.01734   0.02620
           Y            0.01756   0.99981  -0.00835
           Z           -0.02605   0.00880   0.99962
 This molecule is an asymmetric top.
 Rotational symmetry number  1.
 Rotational temperatures (Kelvin)      0.41530     0.19583     0.14796
 Rotational constants (GHZ):           8.65339     4.08039     3.08305
 Zero-point vibrational energy     236118.5 (Joules/Mol)
                                   56.43367 (Kcal/Mol)
 Warning -- explicit consideration of   5 degrees of freedom as
           vibrations may cause significant error
 Vibrational temperatures:    187.61   250.12   357.66   574.32   726.69
          (Kelvin)            916.86  1112.43  1211.39  1366.72  1383.30
                             1553.17  1585.04  1749.51  1808.03  1988.00
                             2011.21  2043.16  2059.10  2084.13  2178.58
                             2576.09  4178.53  4330.21  4331.58  4372.39
                             4456.64  5404.59

 Zero-point correction=                           0.089933 (Hartree/Particle)
 Thermal correction to Energy=                    0.095569
 Thermal correction to Enthalpy=                  0.096513
 Thermal correction to Gibbs Free Energy=         0.061201
 Sum of electronic and zero-point Energies=           -268.344371
 Sum of electronic and thermal Energies=              -268.338735
 Sum of electronic and thermal Enthalpies=            -268.337791
 Sum of electronic and thermal Free Energies=         -268.373103

                     E (Thermal)             CV                S
                      KCal/Mol        Cal/Mol-Kelvin    Cal/Mol-Kelvin
 Total                   59.970             18.869             74.321
 Electronic               0.000              0.000              0.000
 Translational            0.889              2.981             38.822
 Rotational               0.889              2.981             25.493
 Vibrational             58.193             12.907             10.005
 Vibration     1          0.612              1.923              2.940
 Vibration     2          0.627              1.875              2.394
 Vibration     3          0.662              1.765              1.741
 Vibration     4          0.765              1.472              0.966
 Vibration     5          0.860              1.239              0.646

 Optimization completed.
    -- Stationary point found.
 Normal termination of Gaussian 16 at Tue Oct 15 21:37:02 2019.
