 Gaussian 16, Revision A.03,
 Gaussian 16:  ES64L-G16RevA.03 25-Dec-2016

 --------------------------------------------
 #p irc=(calcfc,maxpoint=30) b3lyp/6-311+g(d)
 --------------------------------------------

 -------------------
 Title Card Required
 -------------------
 Symbolic Z-matrix:
 Charge =  0 Multiplicity = 1

 SCF Done:  E(RB3LYP) =  -268.372548685     A.U. after   13 cycles
 SCF Done:  E(RB3LYP) =  -268.372748588     A.U. after   11 cycles
 SCF Done:  E(RB3LYP) =  -268.372764519     A.U. after   10 cycles
 SCF Done:  E(RB3LYP) =  -268.373226813     A.U. after   11 cycles
 SCF Done:  E(RB3LYP) =  -268.373253441     A.U. after   10 cycles
 SCF Done:  E(RB3LYP) =  -268.373897908     A.U. after   11 cycles
 SCF Done:  E(RB3LYP) =  -268.374652418     A.U. after   11 cycles
 SCF Done:  E(RB3LYP) =  -268.375473290     A.U. after   11 cycles
 SCF Done:  E(RB3LYP) =  -268.376345652     A.U. after   11 cycles
 SCF Done:  E(RB3LYP) =  -268.377234647     A.U. after   11 cycles
 SCF Done:  E(RB3LYP) =  -268.426597585     A.U. after    9 cycles
 SCF Done:  E(RB3LYP) =  -268.427194618     A.U. after   10 cycles
 SCF Done:  E(RB3LYP) =  -268.427730233     A.U. after   10 cycles
 SCF Done:  E(RB3LYP) =  -268.428200757     A.U. after   10 cycles
 SCF Done:  E(RB3LYP) =  -268.428206779     A.U. after    9 cycles
 SCF Done:  E(RB3LYP) =  -268.428627220     A.U. after   10 cycles
 SCF Done:  E(RB3LYP) =  -268.428629634     A.U. after    9 cycles
 SCF Done:  E(RB3LYP) =  -268.429004359     A.U. after   10 cycles
 SCF Done:  E(RB3LYP) =  -268.429332013     A.U. after   10 cycles
 SCF Done:  E(RB3LYP) =  -268.429333722     A.U. after    8 cycles

                          Input orientation:
 ---------------------------------------------------------------------
 Center     Atomic      Atomic             Coordinates (Angstroms)
 Number     Number       Type             X           Y           Z
 ---------------------------------------------------------------------
      1          6           0       -1.283035    0.204623    0.227570
      2          1           0       -2.078215    0.625703    0.874975
      3          8           0       -1.289624   -0.980176   -0.034206
      4          6           0       -0.188373    1.119974   -0.252969
      5          1           0       -0.184856    1.117798   -1.348018
      6          1           0       -0.349186    2.144286    0.094490
      7          6           0        1.168710    0.580660    0.255817
      8          1           0        1.973375    1.216452   -0.119982
      9          1           0        1.190529    0.638516    1.354316
     10          8           0        1.443493   -0.731676   -0.182526
     11          1           0        0.630867   -1.258911   -0.157130
 ---------------------------------------------------------------------

 Alpha  occ. eigenvalues --  -19.15186 -19.11833 -10.28855 -10.23596 -10.20089
 Alpha  occ. eigenvalues --   -1.08462  -1.02726  -0.79653  -0.67314  -0.60243
 Alpha  occ. eigenvalues --   -0.52467  -0.51656  -0.47265  -0.44974  -0.43396
 Alpha  occ. eigenvalues --   -0.42141  -0.38986  -0.34815  -0.28331  -0.27960
 Alpha virt. eigenvalues --   -0.06686  -0.00115   0.02069   0.02636   0.03132
 Alpha virt. eigenvalues --    0.05566   0.06029   0.06905   0.07303   0.08588
 Alpha virt. eigenvalues --    0.11092   0.11174   0.14354   0.14961   0.16007

 Mulliken charges:
               1
     1  C    0.107266
     2  H    0.203228
     3  O   -0.273518
     4  C   -0.572448
     5  H    0.294464
     6  H    0.250159
     7  C   -0.468549
     8  H    0.250749
     9  H    0.226681
    10  O   -0.386372
    11  H    0.368340
 Sum of Mulliken charges =  -0.00000

 Dipole moment (field-independent basis, Debye):
    X=             -1.3581    Y=              3.3627    Z=              0.7840  Tot=              3.7104
 Quadrupole moment (field-independent basis, Debye-Ang):
   XX=            -34.5426   YY=            -30.8431   ZZ=            -30.1352
   XY=             -0.2147   XZ=              0.1727   YZ=             -0.2968

  Exact polarizability:   0.000   0.000   0.000   0.000   0.000   0.000
 Approx polarizability:  56.940   0.839  69.571  -2.785   5.123  50.787

 Normal termination of Gaussian 16 at Tue Oct 15 20:41:10 2019.
