 Gaussian 16, Revision A.03,
 Gaussian 16:  ES64L-G16RevA.03 25-Dec-2016

 --------------------------------------------------------------------
 #p irc=(lqa,forward,calcfc,maxpoint=50,stepsize=15) b3lyp/6-311+g(d)
 --------------------------------------------------------------------

 -------------------
 Title Card Required
 -------------------
 Symbolic Z-matrix:
 Charge =  0 Multiplicity = 1

 SCF Done:  E(RB3LYP) =  -268.372548685     A.U. after   13 cycles
 SCF Done:  E(RB3LYP) =  -268.372893472     A.U. after   12 cycles
 SCF Done:  E(RB3LYP) =  -268.373798610     A.U. after   11 cycles
 SCF Done:  E(RB3LYP) =  -268.374914184     A.U. after   11 cycles
 SCF Done:  E(RB3LYP) =  -268.376174202     A.U. after   11 cycles
 SCF Done:  E(RB3LYP) =  -268.377430327     A.U. after   11 cycles
 SCF Done:  E(RB3LYP) =  -268.378759549     A.U. after   11 cycles
 SCF Done:  E(RB3LYP) =  -268.380141554     A.U. after   11 cycles
 SCF Done:  E(RB3LYP) =  -268.381495101     A.U. after   11 cycles
 SCF Done:  E(RB3LYP) =  -268.382789400     A.U. after   11 cycles
 SCF Done:  E(RB3LYP) =  -268.396747173     A.U. after   11 cycles
 SCF Done:  E(RB3LYP) =  -268.396898649     A.U. after   11 cycles
 SCF Done:  E(RB3LYP) =  -268.396955858     A.U. after   11 cycles
 SCF Done:  E(RB3LYP) =  -268.397170922     A.U. after   11 cycles
 SCF Done:  E(RB3LYP) =  -268.397302606     A.U. after   11 cycles
 SCF Done:  E(RB3LYP) =  -268.397522777     A.U. after   11 cycles
 SCF Done:  E(RB3LYP) =  -268.397685104     A.U. after   11 cycles
 SCF Done:  E(RB3LYP) =  -268.397868139     A.U. after   11 cycles
 SCF Done:  E(RB3LYP) =  -268.398059059     A.U. after   11 cycles
 SCF Done:  E(RB3LYP) =  -268.398205746     A.U. after   11 cycles

                          Input orientation:
 ---------------------------------------------------------------------
 Center     Atomic      Atomic             Coordinates (Angstroms)
 Number     Number       Type             X           Y           Z
 ---------------------------------------------------------------------
      1          6           0       -1.566400    0.363795    0.121736
      2          1           0       -2.447535    0.502702    0.738055
      3          8           0       -1.217321   -0.946178    0.089211
      4          6           0       -0.970363    1.387497   -0.494582
      5          1           0       -0.121429    1.263720   -1.156124
      6          1           0       -1.370644    2.385505   -0.377147
      7          6           0        1.951488    0.117674    0.553652
      8          1           0        2.860232    0.738274    0.448688
      9          1           0        1.305421    0.299389    1.442204
     10          8           0        1.663507   -0.715892   -0.274343
     11          1           0       -0.338559   -1.064791   -0.310320
 ---------------------------------------------------------------------

 Alpha  occ. eigenvalues --  -19.16785 -19.14814 -10.29542 -10.23164 -10.15691
 Alpha  occ. eigenvalues --   -1.09277  -1.05985  -0.75504  -0.65937  -0.62463
 Alpha  occ. eigenvalues --   -0.52515  -0.50317  -0.48632  -0.48109  -0.43264
 Alpha  occ. eigenvalues --   -0.39378  -0.38841  -0.36350  -0.30133  -0.23940
 Alpha virt. eigenvalues --   -0.07951   0.00205   0.01378   0.02352   0.02736
 Alpha virt. eigenvalues --    0.03420   0.04897   0.06520   0.07557   0.08079
 Alpha virt. eigenvalues --    0.09132   0.10827   0.12246   0.13490   0.15124

 Mulliken charges:
               1
     1  C   -0.241143
     2  H    0.223702
     3  O   -0.367127
     4  C   -0.446216
     5  H    0.215798
     6  H    0.221732
     7  C   -0.197332
     8  H    0.214916
     9  H    0.225588
    10  O   -0.239959
    11  H    0.390040
 Sum of Mulliken charges =  -0.00000

 Dipole moment (field-independent basis, Debye):
    X=              1.9248    Y=              2.0353    Z=              1.3497  Tot=              3.1095
 Quadrupole moment (field-independent basis, Debye-Ang):
   XX=            -28.6137   YY=            -32.8030   ZZ=            -31.0426
   XY=              0.4628   XZ=              1.6441   YZ=              0.4931

  Exact polarizability:   0.000   0.000   0.000   0.000   0.000   0.000
 Approx polarizability:  59.231  10.928  76.941  -5.514  -0.311  57.719

 Normal termination of Gaussian 16 at Wed Oct 16 01:10:21 2019.
