 Gaussian 16, Revision A.03,
 Gaussian 16:  ES64L-G16RevA.03 25-Dec-2016

 ---------------------
 #p b3lyp/6-311+g* opt
 ---------------------

 -------------------
 Title Card Required
 -------------------
 Symbolic Z-matrix:
 Charge =  0 Multiplicity = 1

 SCF Done:  E(RB3LYP) =  -268.417062079     A.U. after   13 cycles
 SCF Done:  E(RB3LYP) =  -268.426056847     A.U. after   13 cycles
 SCF Done:  E(RB3LYP) =  -268.426863461     A.U. after   11 cycles
 SCF Done:  E(RB3LYP) =  -268.427681822     A.U. after   12 cycles
 SCF Done:  E(RB3LYP) =  -268.429496195     A.U. after   13 cycles
 SCF Done:  E(RB3LYP) =  -268.425816039     A.U. after   12 cycles
 SCF Done:  E(RB3LYP) =  -268.431084534     A.U. after   12 cycles
 SCF Done:  E(RB3LYP) =  -268.432345112     A.U. after   11 cycles
 SCF Done:  E(RB3LYP) =  -268.433385219     A.U. after   12 cycles
 SCF Done:  E(RB3LYP) =  -268.434176144     A.U. after   12 cycles
 SCF Done:  E(RB3LYP) =  -268.434289691     A.U. after   10 cycles
 SCF Done:  E(RB3LYP) =  -268.434299519     A.U. after   10 cycles
 SCF Done:  E(RB3LYP) =  -268.434303895     A.U. after    9 cycles
 Optimization completed.
    -- Stationary point found.

                         Standard orientation:
 ---------------------------------------------------------------------
 Center     Atomic      Atomic             Coordinates (Angstroms)
 Number     Number       Type             X           Y           Z
 ---------------------------------------------------------------------
      1          6           0       -1.357789    0.216629   -0.121919
      2          1           0       -2.296059    0.715957   -0.443221
      3          8           0       -1.380924   -0.945440    0.213971
      4          6           0       -0.115262    1.068976   -0.152618
      5          1           0        0.046554    1.373897   -1.196241
      6          1           0       -0.326700    1.998717    0.394530
      7          6           0        1.126460    0.371174    0.402093
      8          1           0        1.980711    1.049264    0.360190
      9          1           0        0.964680    0.107170    1.455179
     10          8           0        1.492946   -0.772023   -0.353889
     11          1           0        0.814184   -1.445975   -0.216428
 ---------------------------------------------------------------------

 The electronic state is 1-A.
 Alpha  occ. eigenvalues --  -19.14665 -19.12295 -10.28355 -10.22911 -10.19863
 Alpha  occ. eigenvalues --   -1.07786  -1.02873  -0.79484  -0.67678  -0.58702
 Alpha  occ. eigenvalues --   -0.52726  -0.50779  -0.46890  -0.45998  -0.42825
 Alpha  occ. eigenvalues --   -0.41283  -0.38608  -0.34593  -0.28890  -0.27720
 Alpha virt. eigenvalues --   -0.05289  -0.00271   0.01785   0.02508   0.03228
 Alpha virt. eigenvalues --    0.05187   0.05585   0.06671   0.08320   0.08478
 Alpha virt. eigenvalues --    0.10865   0.11607   0.14302   0.15560   0.16241

 Mulliken charges:
               1
     1  C    0.086856
     2  H    0.198756
     3  O   -0.285083
     4  C   -0.567108
     5  H    0.291335
     6  H    0.257794
     7  C   -0.432259
     8  H    0.247029
     9  H    0.232588
    10  O   -0.387536
    11  H    0.357628
 Sum of Mulliken charges =  -0.00000

 Dipole moment (field-independent basis, Debye):
    X=             -1.1059    Y=              2.9179    Z=              0.3065  Tot=              3.1355
 Quadrupole moment (field-independent basis, Debye-Ang):
   XX=            -34.9965   YY=            -29.7740   ZZ=            -30.6403
   XY=             -1.1007   XZ=              2.8045   YZ=              0.0548

 Normal termination of Gaussian 16 at Tue Oct 15 20:06:29 2019.
