 Gaussian 16, Revision A.03,
 Gaussian 16:  ES64L-G16RevA.03 25-Dec-2016

 -------------------------------------------
 #p opt=(calcfc,ts,noeigen) b3lyp/6-311+g(d)
 -------------------------------------------

 -------------------
 Title Card Required
 -------------------
 Symbolic Z-matrix:
 Charge =  0 Multiplicity = 1

 SCF Done:  E(RB3LYP) =  -268.328867876     A.U. after   13 cycles

  Exact polarizability:   0.000   0.000   0.000   0.000   0.000   0.000
 Approx polarizability: 102.649  -1.059  88.261  -2.605   3.695  54.105

 SCF Done:  E(RB3LYP) =  -268.347421984     A.U. after   12 cycles
 SCF Done:  E(RB3LYP) =  -268.360488463     A.U. after   12 cycles
 SCF Done:  E(RB3LYP) =  -268.368911885     A.U. after   12 cycles
 SCF Done:  E(RB3LYP) =  -268.369297310     A.U. after   13 cycles
 SCF Done:  E(RB3LYP) =  -268.370718191     A.U. after   12 cycles
 SCF Done:  E(RB3LYP) =  -268.371111521     A.U. after   13 cycles
 SCF Done:  E(RB3LYP) =  -268.368953782     A.U. after   13 cycles
 SCF Done:  E(RB3LYP) =  -268.365654791     A.U. after   13 cycles
 SCF Done:  E(RB3LYP) =  -268.371151707     A.U. after   13 cycles
 SCF Done:  E(RB3LYP) =  -268.371977198     A.U. after   12 cycles
 SCF Done:  E(RB3LYP) =  -268.372450977     A.U. after   11 cycles
 SCF Done:  E(RB3LYP) =  -268.372133609     A.U. after   11 cycles
 SCF Done:  E(RB3LYP) =  -268.372511734     A.U. after   11 cycles
 SCF Done:  E(RB3LYP) =  -268.372523965     A.U. after    9 cycles
 SCF Done:  E(RB3LYP) =  -268.372543519     A.U. after   10 cycles
 SCF Done:  E(RB3LYP) =  -268.372548027     A.U. after   10 cycles
 SCF Done:  E(RB3LYP) =  -268.372548722     A.U. after    9 cycles
 SCF Done:  E(RB3LYP) =  -268.372548685     A.U. after    8 cycles
 Optimization completed.
    -- Stationary point found.

                         Standard orientation:
 ---------------------------------------------------------------------
 Center     Atomic      Atomic             Coordinates (Angstroms)
 Number     Number       Type             X           Y           Z
 ---------------------------------------------------------------------
      1          6           0       -1.231399    0.200731    0.231782
      2          1           0       -1.892598    0.415195    1.075944
      3          8           0       -1.097210   -1.043364   -0.077634
      4          6           0       -0.420652    1.183024   -0.331899
      5          1           0       -0.133078    1.068486   -1.370393
      6          1           0       -0.547777    2.206046    0.007279
      7          6           0        1.291100    0.391933    0.293044
      8          1           0        1.892694    1.141520   -0.235700
      9          1           0        1.237659    0.567706    1.377868
     10          8           0        1.300659   -0.814459   -0.142498
     11          1           0       -0.018790   -1.190492   -0.251507
 ---------------------------------------------------------------------

 The electronic state is 1-A.
 Alpha  occ. eigenvalues --  -19.16533 -19.10674 -10.28113 -10.26287 -10.19900
 Alpha  occ. eigenvalues --   -1.09559  -1.02067  -0.78577  -0.64466  -0.63879
 Alpha  occ. eigenvalues --   -0.54136  -0.52034  -0.47316  -0.45659  -0.43739
 Alpha  occ. eigenvalues --   -0.42398  -0.36919  -0.35560  -0.27187  -0.25781
 Alpha virt. eigenvalues --   -0.07359   0.00052   0.01590   0.01851   0.03355
 Alpha virt. eigenvalues --    0.04918   0.06028   0.06669   0.07055   0.07883
 Alpha virt. eigenvalues --    0.08480   0.11290   0.12242   0.14157   0.16295

 Mulliken charges:
               1
     1  C    0.030192
     2  H    0.230550
     3  O   -0.357611
     4  C   -0.636510
     5  H    0.308309
     6  H    0.250560
     7  C   -0.381640
     8  H    0.238409
     9  H    0.225866
    10  O   -0.383352
    11  H    0.475228
 Sum of Mulliken charges =  -0.00000

 Dipole moment (field-independent basis, Debye):
    X=             -1.0165    Y=              3.5126    Z=              0.8175  Tot=              3.7470
 Quadrupole moment (field-independent basis, Debye-Ang):
   XX=            -33.0232   YY=            -32.3034   ZZ=            -29.8043
   XY=              1.1692   XZ=             -0.6832   YZ=              0.0781

 Normal termination of Gaussian 16 at Tue Oct 15 20:24:47 2019.
