 Gaussian 16, Revision A.03,
 Gaussian 16:  ES64L-G16RevA.03 25-Dec-2016

 -------------------------------------------------
 #p opt=(calcall,ts,noeigen) freq b3lyp/6-311+g(d)
 -------------------------------------------------

 -------------------
 Title Card Required
 -------------------
 Symbolic Z-matrix:
 Charge =  0 Multiplicity = 1

 SCF Done:  E(RB3LYP) =  -268.372548685     A.U. after   13 cycles
 Optimization completed.
    -- Stationary point found.
 ******    1 imaginary frequencies (negative Signs) ******
    1 imaginary frequencies ignored.
 Normal termination of Gaussian 16 at Tue Oct 15 20:30:31 2019.

 ----------------------------------------------------------------------
 #P Geom=AllCheck Guess=TCheck SCRF=Check GenChk RB3LYP/6-311+G(d) Freq
 ----------------------------------------------------------------------

 Structure from the checkpoint file:  "ts3.chk"
 -------------------
 Title Card Required
 -------------------
 Charge =  0 Multiplicity = 1

                         Standard orientation:
 ---------------------------------------------------------------------
 Center     Atomic      Atomic             Coordinates (Angstroms)
 Number     Number       Type             X           Y           Z
 ---------------------------------------------------------------------
      1          6           0       -1.231399    0.200731    0.231782
      2          1           0       -1.892598    0.415195    1.075944
      3          8           0       -1.097210   -1.043364   -0.077634
      4          6           0       -0.420652    1.183024   -0.331899
      5          1           0       -0.133078    1.068486   -1.370393
      6          1           0       -0.547777    2.206046    0.007279
      7          6           0        1.291100    0.391933    0.293044
      8          1           0        1.892694    1.141520   -0.235700
      9          1           0        1.237659    0.567706    1.377868
     10          8           0        1.300659   -0.814459   -0.142498
     11          1           0       -0.018790   -1.190492   -0.251507
 ---------------------------------------------------------------------

 SCF Done:  E(RB3LYP) =  -268.372548685     A.U. after    1 cycles

 The electronic state is 1-A.
 Alpha  occ. eigenvalues --  -19.16533 -19.10674 -10.28113 -10.26287 -10.19900
 Alpha  occ. eigenvalues --   -1.09559  -1.02067  -0.78577  -0.64466  -0.63879
 Alpha  occ. eigenvalues --   -0.54136  -0.52034  -0.47316  -0.45659  -0.43739
 Alpha  occ. eigenvalues --   -0.42398  -0.36919  -0.35560  -0.27187  -0.25781
 Alpha virt. eigenvalues --   -0.07359   0.00052   0.01590   0.01851   0.03355
 Alpha virt. eigenvalues --    0.04918   0.06028   0.06669   0.07055   0.07883
 Alpha virt. eigenvalues --    0.08480   0.11290   0.12242   0.14157   0.16295

 Mulliken charges:
               1
     1  C    0.030192
     2  H    0.230550
     3  O   -0.357612
     4  C   -0.636511
     5  H    0.308309
     6  H    0.250560
     7  C   -0.381640
     8  H    0.238409
     9  H    0.225866
    10  O   -0.383351
    11  H    0.475228
 Sum of Mulliken charges =   0.00000

 Dipole moment (field-independent basis, Debye):
    X=             -1.0165    Y=              3.5126    Z=              0.8175  Tot=              3.7469
 Quadrupole moment (field-independent basis, Debye-Ang):
   XX=            -33.0232   YY=            -32.3034   ZZ=            -29.8043
   XY=              1.1692   XZ=             -0.6832   YZ=              0.0781

  Exact polarizability:  61.653  -0.364  50.748  -1.280   0.062  38.460
 Approx polarizability:  99.934  -0.791  79.805  -3.229   1.840  52.860

 ******    1 imaginary frequencies (negative Signs) ******

                      1                      2                      3
                      A                      A                      A
 Frequencies --   -892.4054               166.6362               299.7822
 Red. masses --      1.8380                 2.8325                 2.7893
 Frc consts  --      0.8624                 0.0463                 0.1477
 IR Inten    --     20.0706                 4.6566                76.7498

                      4                      5                      6
                      A                      A                      A
 Frequencies --    364.2984               506.2166               535.1576
 Red. masses --      2.8835                 4.3821                 2.5006
 Frc consts  --      0.2255                 0.6616                 0.4219
 IR Inten    --     55.4914                98.3404                11.1331

                      7                      8                      9
                      A                      A                      A
 Frequencies --    705.1160               863.5595               873.5363
 Red. masses --      2.1170                 1.1387                 1.4508
 Frc consts  --      0.6201                 0.5003                 0.6523
 IR Inten    --     70.6380                88.8177                14.1835

                     10                     11                     12
                      A                      A                      A
 Frequencies --    953.7735              1011.0818              1046.2696
 Red. masses --      1.2014                 1.3207                 1.5866
 Frc consts  --      0.6439                 0.7955                 1.0233
 IR Inten    --    154.5331                32.0116                17.1929

                     13                     14                     15
                      A                      A                      A
 Frequencies --   1103.4360              1219.6582              1251.9288
 Red. masses --      1.4165                 1.2713                 1.2612
 Frc consts  --      1.0161                 1.1142                 1.1646
 IR Inten    --     44.0241                15.7461                25.5708

                     16                     17                     18
                      A                      A                      A
 Frequencies --   1283.3852              1354.0489              1435.5309
 Red. masses --      2.1339                 1.3673                 1.8327
 Frc consts  --      2.0708                 1.4770                 2.2252
 IR Inten    --     14.5917                63.1045               114.9454

                     19                     20                     21
                      A                      A                      A
 Frequencies --   1494.0761              1579.4737              1633.0234
 Red. masses --      1.2646                 1.5120                 2.4239
 Frc consts  --      1.6632                 2.2225                 3.8085
 IR Inten    --     15.2752                32.8072               278.0096

                     22                     23                     24
                      A                      A                      A
 Frequencies --   1892.4132              2967.4027              3033.7309
 Red. masses --      1.1375                 1.0540                 1.1127
 Frc consts  --      2.4002                 5.4682                 6.0338
 IR Inten    --    235.6244                81.8825                44.7398

                     25                     26                     27
                      A                      A                      A
 Frequencies --   3091.8266              3136.8350              3221.7240
 Red. masses --      1.0893                 1.0594                 1.1161
 Frc consts  --      6.1351                 6.1415                 6.8253
 IR Inten    --     25.7643                 4.4491                 5.0840

 - Thermochemistry -
 -------------------
 Temperature   298.150 Kelvin.  Pressure   1.00000 Atm.
 Atom     1 has atomic number  6 and mass  12.00000

 Molecular mass:    74.03678 amu.
 Principal axes and moments of inertia in atomic units:
                           1         2         3
     Eigenvalues --   231.01835 372.24334 542.54272
           X            0.99979   0.01952  -0.00674
           Y           -0.01954   0.99980  -0.00331
           Z            0.00668   0.00344   0.99997
 This molecule is an asymmetric top.
 Rotational symmetry number  1.
 Rotational temperatures (Kelvin)      0.37492     0.23268     0.15964
 Rotational constants (GHZ):           7.81211     4.84828     3.32645
    1 imaginary frequencies ignored.
 Zero-point vibrational energy     221452.2 (Joules/Mol)
                                   52.92835 (Kcal/Mol)
 Warning -- explicit consideration of   5 degrees of freedom as
           vibrations may cause significant error
 Vibrational temperatures:    239.75   431.32   524.14   728.33   769.97
          (Kelvin)           1014.50  1242.47  1256.82  1372.27  1454.72
                             1505.35  1587.60  1754.82  1801.25  1846.51
                             1948.17  2065.41  2149.64  2272.51  2349.56
                             2722.76  4269.43  4364.86  4448.45  4513.21
                             4635.34

 Zero-point correction=                           0.084347 (Hartree/Particle)
 Thermal correction to Energy=                    0.089415
 Thermal correction to Enthalpy=                  0.090359
 Thermal correction to Gibbs Free Energy=         0.056383
 Sum of electronic and zero-point Energies=           -268.288202
 Sum of electronic and thermal Energies=              -268.283134
 Sum of electronic and thermal Enthalpies=            -268.282190
 Sum of electronic and thermal Free Energies=         -268.316166

                     E (Thermal)             CV                S
                      KCal/Mol        Cal/Mol-Kelvin    Cal/Mol-Kelvin
 Total                   56.109             17.722             71.509
 Electronic               0.000              0.000              0.000
 Translational            0.889              2.981             38.822
 Rotational               0.889              2.981             25.348
 Vibrational             54.331             11.760              7.339
 Vibration     1          0.624              1.883              2.473
 Vibration     2          0.692              1.674              1.418
 Vibration     3          0.738              1.546              1.104
 Vibration     4          0.861              1.236              0.643
 Vibration     5          0.890              1.172              0.576

 Optimization completed.
    -- Stationary point found.
 Normal termination of Gaussian 16 at Tue Oct 15 20:30:50 2019.
