 Gaussian 16, Revision A.03,
 Gaussian 16:  ES64L-G16RevA.03 25-Dec-2016

 ---------------------------------------------
 #p b3lyp/def2tzvp em=gd3bj opt=(calcall) freq
 ---------------------------------------------

 -------------------
 Title Card Required
 -------------------
 Symbolic Z-matrix:
 Charge = -1 Multiplicity = 1

 SCF Done:  E(RB3LYP) =  -3074.30982336     A.U. after   13 cycles
 SCF Done:  E(RB3LYP) =  -3074.36489243     A.U. after   12 cycles
 SCF Done:  E(RB3LYP) =  -3074.41642158     A.U. after   12 cycles
 SCF Done:  E(RB3LYP) =  -3074.42728307     A.U. after   11 cycles
 SCF Done:  E(RB3LYP) =  -3074.43046227     A.U. after   11 cycles
 SCF Done:  E(RB3LYP) =  -3074.43084031     A.U. after   10 cycles
 SCF Done:  E(RB3LYP) =  -3074.43085934     A.U. after    9 cycles
 Optimization completed.
    -- Stationary point found.
 Normal termination of Gaussian 16 at Thu Oct 17 18:29:02 2019.

 --------------------------------------------------------------------
 #P Geom=AllCheck Guess=TCheck SCRF=Check GenChk RB3LYP/def2TZVP Freq
 --------------------------------------------------------------------

 Structure from the checkpoint file:  "P_d.chk"
 -------------------
 Title Card Required
 -------------------
 Charge = -1 Multiplicity = 1

                         Standard orientation:
 ---------------------------------------------------------------------
 Center     Atomic      Atomic             Coordinates (Angstroms)
 Number     Number       Type             X           Y           Z
 ---------------------------------------------------------------------
      1          6           0       -0.000000   -0.000000   -0.325479
      2          1           0        0.000000    1.034931   -0.628922
      3          1           0       -0.896276   -0.517465   -0.628922
      4          1           0        0.896276   -0.517465   -0.628922
      5         35           0        0.000000    0.000000    1.718471
      6         17           0       -0.000000   -0.000000   -3.312166
 ---------------------------------------------------------------------

 SCF Done:  E(RB3LYP) =  -3074.43085934     A.U. after    1 cycles

 The electronic state is 1-A1.
 Alpha  occ. eigenvalues -- -482.70625-101.20942 -62.35448 -56.17019 -56.16727
 Alpha  occ. eigenvalues --  -56.16727 -10.07313  -9.14120  -8.54548  -6.89764
 Alpha  occ. eigenvalues --   -6.89684  -6.89684  -6.37365  -6.36461  -6.36461
 Alpha  occ. eigenvalues --   -2.48836  -2.48580  -2.48580  -2.47856  -2.47856
 Alpha  occ. eigenvalues --   -0.65001  -0.53019  -0.49223  -0.29288  -0.29288
 Alpha  occ. eigenvalues --   -0.23086  -0.14862  -0.14862  -0.04256  -0.04095
 Alpha  occ. eigenvalues --   -0.04095
 Alpha virt. eigenvalues --    0.12414   0.19406   0.25223   0.25223   0.30104
 Alpha virt. eigenvalues --    0.34252   0.34252   0.38434   0.38434   0.38789
 Alpha virt. eigenvalues --    0.44074   0.44074   0.49305   0.49305   0.52350

 Mulliken charges:
               1
     1  C   -0.181775
     2  H    0.126077
     3  H    0.126077
     4  H    0.126077
     5  Br  -0.324052
     6  Cl  -0.872405
 Sum of Mulliken charges =  -1.00000

 Dipole moment (field-independent basis, Debye):
    X=             -0.0000    Y=             -0.0000    Z=             10.1433  Tot=             10.1433
 Quadrupole moment (field-independent basis, Debye-Ang):
   XX=            -42.4022   YY=            -42.4022   ZZ=            -93.7079
   XY=             -0.0000   XZ=             -0.0000   YZ=              0.0000

  Exact polarizability:  38.550  -0.000  38.549   0.000   0.001 105.785
 Approx polarizability:  59.236  -0.000  59.236  -0.000   0.000 145.174

                      1                      2                      3
                      E                      E                     A1
 Frequencies --     85.4352                85.4362               115.7342
 Red. masses --      3.3545                 3.3545                28.6588
 Frc consts  --      0.0144                 0.0144                 0.2262
 IR Inten    --      7.6087                 7.6089                56.0712

                      4                      5                      6
                     A1                      E                      E
 Frequencies --    411.7004               891.4659               891.4660
 Red. masses --      7.7921                 1.1169                 1.1169
 Frc consts  --      0.7782                 0.5229                 0.5229
 IR Inten    --    287.5660                 2.4644                 2.4646

                      7                      8                      9
                     A1                      E                      E
 Frequencies --   1216.5361              1442.4467              1442.4467
 Red. masses --      1.0868                 1.0707                 1.0707
 Frc consts  --      0.9476                 1.3126                 1.3126
 IR Inten    --     50.2982                 4.7741                 4.7744

                     10                     11                     12
                     A1                      E                      E
 Frequencies --   3143.5964              3274.2296              3274.2298
 Red. masses --      1.0213                 1.1127                 1.1127
 Frc consts  --      5.9464                 7.0282                 7.0282
 IR Inten    --      1.1377                 0.1500                 0.1500

 - Thermochemistry -
 -------------------
 Temperature   298.150 Kelvin.  Pressure   1.00000 Atm.
 Atom     1 has atomic number  6 and mass  12.00000

 Molecular mass:   128.91066 amu.
 Principal axes and moments of inertia in atomic units:
                           1         2         3
     Eigenvalues --    11.564502211.379082211.37908
           X            0.00000  -0.01615   0.99987
           Y           -0.00000   0.99987   0.01615
           Z            1.00000   0.00000   0.00000
 This molecule is a prolate symmetric top.
 Rotational symmetry number  3.
 Rotational temperatures (Kelvin)      7.48964     0.03917     0.03917
 Rotational constants (GHZ):         156.05878     0.81612     0.81612
 Zero-point vibrational energy      97344.5 (Joules/Mol)
                                   23.26588 (Kcal/Mol)
 Warning -- explicit consideration of   4 degrees of freedom as
           vibrations may cause significant error
 Vibrational temperatures:    122.92   122.92   166.52   592.35  1282.62
          (Kelvin)           1282.62  1750.32  2075.36  2075.36  4522.93
                             4710.89  4710.89

 Zero-point correction=                           0.037077 (Hartree/Particle)
 Thermal correction to Energy=                    0.042578
 Thermal correction to Enthalpy=                  0.043522
 Thermal correction to Gibbs Free Energy=         0.007505
 Sum of electronic and zero-point Energies=          -3074.393783
 Sum of electronic and thermal Energies=             -3074.388282
 Sum of electronic and thermal Enthalpies=           -3074.387338
 Sum of electronic and thermal Free Energies=        -3074.423354

                     E (Thermal)             CV                S
                      KCal/Mol        Cal/Mol-Kelvin    Cal/Mol-Kelvin
 Total                   26.718             14.663             75.804
 Electronic               0.000              0.000              0.000
 Translational            0.889              2.981             40.475
 Rotational               0.889              2.981             23.356
 Vibrational             24.940              8.701             11.973
 Vibration     1          0.601              1.959              3.762
 Vibration     2          0.601              1.959              3.762
 Vibration     3          0.608              1.936              3.170
 Vibration     4          0.776              1.445              0.921

 Optimization completed.
    -- Stationary point found.
 Normal termination of Gaussian 16 at Thu Oct 17 18:29:13 2019.
