 Gaussian 16, Revision A.03,
 Gaussian 16:  ES64L-G16RevA.03 25-Dec-2016

 -------------------------------------------
 #p b3lyp/def2tzvp em=gd3bj opt=calcall freq
 -------------------------------------------

 -------------------
 Title Card Required
 -------------------
 Symbolic Z-matrix:
 Charge = -1 Multiplicity = 1

 SCF Done:  E(RB3LYP) =  -3074.15382830     A.U. after   14 cycles
 SCF Done:  E(RB3LYP) =  -3074.26506244     A.U. after   13 cycles
 SCF Done:  E(RB3LYP) =  -3074.38298535     A.U. after   12 cycles
 SCF Done:  E(RB3LYP) =  -3074.42692270     A.U. after   11 cycles
 SCF Done:  E(RB3LYP) =  -3074.43949200     A.U. after   11 cycles
 SCF Done:  E(RB3LYP) =  -3074.44193282     A.U. after   11 cycles
 SCF Done:  E(RB3LYP) =  -3074.44304640     A.U. after    9 cycles
 SCF Done:  E(RB3LYP) =  -3074.44312268     A.U. after    9 cycles
 SCF Done:  E(RB3LYP) =  -3074.44312293     A.U. after    6 cycles
 Optimization completed.
    -- Stationary point found.
 Normal termination of Gaussian 16 at Thu Oct 17 18:29:26 2019.

 --------------------------------------------------------------------
 #P Geom=AllCheck Guess=TCheck SCRF=Check GenChk RB3LYP/def2TZVP Freq
 --------------------------------------------------------------------

 Structure from the checkpoint file:  "R_d.chk"
 -------------------
 Title Card Required
 -------------------
 Charge = -1 Multiplicity = 1

                         Standard orientation:
 ---------------------------------------------------------------------
 Center     Atomic      Atomic             Coordinates (Angstroms)
 Number     Number       Type             X           Y           Z
 ---------------------------------------------------------------------
      1          6           0        0.000000   -0.000000   -1.393971
      2          1           0        0.000000    1.028155   -1.058828
      3          1           0        0.890408   -0.514077   -1.058828
      4          1           0       -0.890408   -0.514077   -1.058828
      5         17           0        0.000000   -0.000000   -3.238052
      6         35           0       -0.000000    0.000000    1.902491
 ---------------------------------------------------------------------

 SCF Done:  E(RB3LYP) =  -3074.44312293     A.U. after    1 cycles

 The electronic state is 1-A1.
 Alpha  occ. eigenvalues -- -482.56360-101.38098 -62.21256 -56.02637 -56.02622
 Alpha  occ. eigenvalues --  -56.02622 -10.08171  -9.31325  -8.40360  -7.07422
 Alpha  occ. eigenvalues --   -7.06643  -7.06643  -6.22615  -6.22569  -6.22569
 Alpha  occ. eigenvalues --   -2.34186  -2.34173  -2.34173  -2.34137  -2.34137
 Alpha  occ. eigenvalues --   -0.70820  -0.53923  -0.47239  -0.30511  -0.30511
 Alpha  occ. eigenvalues --   -0.27136  -0.17342  -0.17342  -0.03958  -0.03792
 Alpha  occ. eigenvalues --   -0.03792
 Alpha virt. eigenvalues --    0.15118   0.18942   0.24785   0.24785   0.32921
 Alpha virt. eigenvalues --    0.34058   0.34058   0.41688   0.45443   0.46111
 Alpha virt. eigenvalues --    0.46111   0.47618   0.47618   0.52039   0.52039

 Mulliken charges:
               1
     1  C   -0.170228
     2  H    0.127318
     3  H    0.127318
     4  H    0.127318
     5  Cl  -0.282815
     6  Br  -0.928912
 Sum of Mulliken charges =  -1.00000

 Dipole moment (field-independent basis, Debye):
    X=              0.0000    Y=             -0.0000    Z=             -4.7750  Tot=              4.7750
 Quadrupole moment (field-independent basis, Debye-Ang):
   XX=            -42.9755   YY=            -42.9755   ZZ=            -74.0429
   XY=             -0.0000   XZ=             -0.0000   YZ=              0.0000

  Exact polarizability:  39.524  -0.000  39.526  -0.000   0.000  86.265
 Approx polarizability:  61.515  -0.000  61.515   0.000  -0.000 111.643

                      1                      2                      3
                      E                      E                     A1
 Frequencies --     70.8577                70.8589                87.9394
 Red. masses --      3.1739                 3.1739                15.1285
 Frc consts  --      0.0094                 0.0094                 0.0689
 IR Inten    --      5.5382                 5.5382                12.0704

                      4                      5                      6
                     A1                      E                      E
 Frequencies --    583.9923               971.7631               971.7633
 Red. masses --      8.7222                 1.1562                 1.1562
 Frc consts  --      1.7526                 0.6433                 0.6433
 IR Inten    --    201.7853                 1.6580                 1.6581

                      7                      8                      9
                     A1                      E                      E
 Frequencies --   1309.9563              1460.3997              1460.3998
 Red. masses --      1.1040                 1.0626                 1.0626
 Frc consts  --      1.1162                 1.3353                 1.3353
 IR Inten    --      9.8341                 4.9854                 4.9850

                     10                     11                     12
                     A1                      E                      E
 Frequencies --   3119.1644              3231.5925              3231.5926
 Red. masses --      1.0246                 1.1107                 1.1107
 Frc consts  --      5.8733                 6.8339                 6.8339
 IR Inten    --      7.7308                 0.5498                 0.5498

 - Thermochemistry -
 -------------------
 Temperature   298.150 Kelvin.  Pressure   1.00000 Atm.
 Atom     1 has atomic number  6 and mass  12.00000

 Molecular mass:   128.91066 amu.
 Principal axes and moments of inertia in atomic units:
                           1         2         3
     Eigenvalues --    11.413562422.464732422.46473
           X            0.00000   0.07576   0.99713
           Y            0.00000   0.99713  -0.07576
           Z            1.00000  -0.00000   0.00000
 This molecule is a prolate symmetric top.
 Rotational symmetry number  3.
 Rotational temperatures (Kelvin)      7.58869     0.03575     0.03575
 Rotational constants (GHZ):         158.12261     0.74500     0.74500
 Zero-point vibrational energy      99112.3 (Joules/Mol)
                                   23.68840 (Kcal/Mol)
 Warning -- explicit consideration of   4 degrees of freedom as
           vibrations may cause significant error
 Vibrational temperatures:    101.95   101.95   126.53   840.23  1398.15
          (Kelvin)           1398.15  1884.73  2101.19  2101.19  4487.78
                             4649.54  4649.54

 Zero-point correction=                           0.037750 (Hartree/Particle)
 Thermal correction to Energy=                    0.043198
 Thermal correction to Enthalpy=                  0.044142
 Thermal correction to Gibbs Free Energy=         0.007697
 Sum of electronic and zero-point Energies=          -3074.405373
 Sum of electronic and thermal Energies=             -3074.399925
 Sum of electronic and thermal Enthalpies=           -3074.398981
 Sum of electronic and thermal Free Energies=        -3074.435426

                     E (Thermal)             CV                S
                      KCal/Mol        Cal/Mol-Kelvin    Cal/Mol-Kelvin
 Total                   27.107             14.055             76.705
 Electronic               0.000              0.000              0.000
 Translational            0.889              2.981             40.475
 Rotational               0.889              2.981             23.524
 Vibrational             25.330              8.093             12.706
 Vibration     1          0.598              1.968              4.129
 Vibration     2          0.598              1.968              4.129
 Vibration     3          0.601              1.958              3.705
 Vibration     4          0.941              1.066              0.478

 Optimization completed.
    -- Stationary point found.
 Normal termination of Gaussian 16 at Thu Oct 17 18:29:36 2019.
