 Gaussian 16, Revision A.03,
 Gaussian 16:  ES64L-G16RevA.03 25-Dec-2016

 ----------------------------------------------------------------------
 #p opt=(calcall,ts,noeigen) freq b3lyp def2tzvp em=gd3bj scrf=(cpcm,so
 lvent=benzene)
 ----------------------------------------------------------------------

 -------------------
 Title Card Required
 -------------------
 Symbolic Z-matrix:
 Charge = -1 Multiplicity = 1

 SCF Done:  E(RB3LYP) =  -3074.47314043     A.U. after   11 cycles
 SCF Done:  E(RB3LYP) =  -3074.47304584     A.U. after    9 cycles
 Optimization completed.
    -- Stationary point found.
 ******    1 imaginary frequencies (negative Signs) ******
    1 imaginary frequencies ignored.
 Normal termination of Gaussian 16 at Fri Oct 18 01:00:49 2019.

 --------------------------------------------------------------------
 #P Geom=AllCheck Guess=TCheck SCRF=Check GenChk RB3LYP/def2TZVP Freq
 --------------------------------------------------------------------

 Structure from the checkpoint file:  "ts_cpcm_benzene_maugccpvtz.chk"
 -------------------
 Title Card Required
 -------------------
 Charge = -1 Multiplicity = 1

                         Standard orientation:
 ---------------------------------------------------------------------
 Center     Atomic      Atomic             Coordinates (Angstroms)
 Number     Number       Type             X           Y           Z
 ---------------------------------------------------------------------
      1          6           0       -0.732240   -0.000001    0.000955
      2          1           0       -0.761342    0.898939   -0.579068
      3          1           0       -0.761315   -0.951857   -0.487404
      4          1           0       -0.761272    0.052929    1.069507
      5         17           0       -3.138959   -0.000000   -0.000260
      6         35           0        1.715419    0.000000   -0.000124
 ---------------------------------------------------------------------

 SCF Done:  E(RB3LYP) =  -3074.47304584     A.U. after    1 cycles

 The electronic state is 1-A.
 Alpha  occ. eigenvalues -- -482.72497-101.36422 -62.37351 -56.18829 -56.18672
 Alpha  occ. eigenvalues --  -56.18672 -10.16549  -9.29625  -8.56436  -7.05425
 Alpha  occ. eigenvalues --   -7.05102  -7.05102  -6.38976  -6.38492  -6.38492
 Alpha  occ. eigenvalues --   -2.50489  -2.50359  -2.50359  -2.49974  -2.49974
 Alpha  occ. eigenvalues --   -0.67663  -0.64388  -0.59877  -0.38213  -0.38212
 Alpha  occ. eigenvalues --   -0.25262  -0.19068  -0.19068  -0.18382  -0.18381
 Alpha  occ. eigenvalues --   -0.17269
 Alpha virt. eigenvalues --    0.02537   0.11624   0.17813   0.17815   0.25893
 Alpha virt. eigenvalues --    0.26516   0.26517   0.32941   0.33687   0.33688
 Alpha virt. eigenvalues --    0.38970   0.38971   0.40427   0.41541   0.41541

 Mulliken charges:
               1
     1  C   -0.150771
     2  H    0.157622
     3  H    0.157650
     4  H    0.157536
     5  Cl  -0.682647
     6  Br  -0.639391
 Sum of Mulliken charges =  -1.00000

 Dipole moment (field-independent basis, Debye):
    X=              3.8531    Y=             -0.0001    Z=              0.0023  Tot=              3.8531
 Quadrupole moment (field-independent basis, Debye-Ang):
   XX=            -84.7475   YY=            -42.4793   ZZ=            -42.4804
   XY=             -0.0001   XZ=             -0.0032   YZ=              0.0000

  Exact polarizability: 159.663  -0.000  44.921   0.001  -0.002  44.929
 Approx polarizability: 205.310  -0.000  60.598  -0.000  -0.000  60.599

 ******    1 imaginary frequencies (negative Signs) ******

                      1                      2                      3
                      A                      A                      A
 Frequencies --   -366.5812               170.1190               171.6325
 Red. masses --     12.5870                33.5257                 4.1964
 Frc consts  --      0.9966                 0.5717                 0.0728
 IR Inten    --   1388.0917                 3.5912                12.0283

                      4                      5                      6
                      A                      A                      A
 Frequencies --    172.7697               886.9248               887.4726
 Red. masses --      4.2483                 1.0114                 1.0115
 Frc consts  --      0.0747                 0.4688                 0.4694
 IR Inten    --     11.8781                 0.1717                 0.1718

                      7                      8                      9
                      A                      A                      A
 Frequencies --   1014.0103              1402.8867              1403.0922
 Red. masses --      1.0371                 1.1029                 1.1030
 Frc consts  --      0.6283                 1.2789                 1.2794
 IR Inten    --    182.7797                 5.8177                 5.8736

                     10                     11                     12
                      A                      A                      A
 Frequencies --   3197.7277              3391.9870              3392.0903
 Red. masses --      1.0080                 1.1229                 1.1229
 Frc consts  --      6.0726                 7.6120                 7.6125
 IR Inten    --      0.3267                 5.7911                 5.8400

 - Thermochemistry -
 -------------------
 Temperature   298.150 Kelvin.  Pressure   1.00000 Atm.
 Atom     1 has atomic number  6 and mass  12.00000

 Molecular mass:   128.91066 amu.
 Principal axes and moments of inertia in atomic units:
                           1         2         3
     Eigenvalues --    12.357792089.289452089.29010
           X            1.00000  -0.00000  -0.00000
           Y            0.00000   1.00000   0.00004
           Z            0.00000  -0.00004   1.00000
 This molecule is an asymmetric top.
 Rotational symmetry number  1.
 Rotational temperatures (Kelvin)      7.00885     0.04146     0.04146
 Rotational constants (GHZ):         146.04074     0.86381     0.86381
    1 imaginary frequencies ignored.
 Zero-point vibrational energy      96243.8 (Joules/Mol)
                                   23.00283 (Kcal/Mol)
 Warning -- explicit consideration of   3 degrees of freedom as
           vibrations may cause significant error
 Vibrational temperatures:    244.76   246.94   248.58  1276.09  1276.88
          (Kelvin)           1458.93  2018.44  2018.74  4600.82  4880.31
                             4880.46

 Zero-point correction=                           0.036657 (Hartree/Particle)
 Thermal correction to Energy=                    0.041473
 Thermal correction to Enthalpy=                  0.042417
 Thermal correction to Gibbs Free Energy=         0.007428
 Sum of electronic and zero-point Energies=          -3074.436389
 Sum of electronic and thermal Energies=             -3074.431573
 Sum of electronic and thermal Enthalpies=           -3074.430629
 Sum of electronic and thermal Free Energies=        -3074.465618

                     E (Thermal)             CV                S
                      KCal/Mol        Cal/Mol-Kelvin    Cal/Mol-Kelvin
 Total                   26.025             13.202             73.642
 Electronic               0.000              0.000              0.000
 Translational            0.889              2.981             40.475
 Rotational               0.889              2.981             25.492
 Vibrational             24.247              7.240              7.675
 Vibration     1          0.625              1.879              2.434
 Vibration     2          0.626              1.877              2.418
 Vibration     3          0.626              1.876              2.405

 Optimization completed.
    -- Stationary point found.
 Normal termination of Gaussian 16 at Fri Oct 18 01:01:14 2019.
