 Gaussian 16, Revision A.03,
 Gaussian 16:  ES64L-G16RevA.03 25-Dec-2016

 ----------------------------------------------------------------------
 #p opt=(calcall,ts,noeigen) freq b3lyp def2tzvp em=gd3bj scrf=(cpcm,so
 lvent=dichloromethane)
 ----------------------------------------------------------------------

 -------------------
 Title Card Required
 -------------------
 Symbolic Z-matrix:
 Charge = -1 Multiplicity = 1

 SCF Done:  E(RB3LYP) =  -3074.50103934     A.U. after   11 cycles
 SCF Done:  E(RB3LYP) =  -3074.50079505     A.U. after   10 cycles
 SCF Done:  E(RB3LYP) =  -3074.50079540     A.U. after    7 cycles
 Optimization completed.
    -- Stationary point found.
 ******    1 imaginary frequencies (negative Signs) ******
    1 imaginary frequencies ignored.
 Normal termination of Gaussian 16 at Fri Oct 18 01:10:01 2019.

 --------------------------------------------------------------------
 #P Geom=AllCheck Guess=TCheck SCRF=Check GenChk RB3LYP/def2TZVP Freq
 --------------------------------------------------------------------

 Structure from the checkpoint file:  "ts_cpcm_dichloromethane_maugccpvtz.chk"
 -------------------
 Title Card Required
 -------------------
 Charge = -1 Multiplicity = 1

                         Standard orientation:
 ---------------------------------------------------------------------
 Center     Atomic      Atomic             Coordinates (Angstroms)
 Number     Number       Type             X           Y           Z
 ---------------------------------------------------------------------
      1          6           0       -0.744088   -0.000049    0.001304
      2          1           0       -0.762478    0.920017   -0.546015
      3          1           0       -0.762550   -0.934164   -0.521684
      4          1           0       -0.762533    0.013999    1.071815
      5         17           0       -3.135544    0.000014   -0.000357
      6         35           0        1.715895    0.000006   -0.000168
 ---------------------------------------------------------------------

 SCF Done:  E(RB3LYP) =  -3074.50079540     A.U. after    1 cycles

 The electronic state is 1-A.
 Alpha  occ. eigenvalues -- -482.77460-101.41983 -62.42317 -56.23791 -56.23640
 Alpha  occ. eigenvalues --  -56.23640 -10.21522  -9.35194  -8.61403  -7.10993
 Alpha  occ. eigenvalues --   -7.10671  -7.10671  -6.43929  -6.43467  -6.43467
 Alpha  occ. eigenvalues --   -2.55446  -2.55321  -2.55321  -2.54953  -2.54953
 Alpha  occ. eigenvalues --   -0.72906  -0.69603  -0.64937  -0.43097  -0.43096
 Alpha  occ. eigenvalues --   -0.30456  -0.24509  -0.24508  -0.23584  -0.23583
 Alpha  occ. eigenvalues --   -0.22538
 Alpha virt. eigenvalues --   -0.02516   0.07134   0.13307   0.13309   0.20985
 Alpha virt. eigenvalues --    0.21762   0.21762   0.27735   0.28670   0.28671
 Alpha virt. eigenvalues --    0.33875   0.33876   0.35244   0.36404   0.36405

 Mulliken charges:
               1
     1  C   -0.158113
     2  H    0.165975
     3  H    0.165986
     4  H    0.165872
     5  Cl  -0.686366
     6  Br  -0.653354
 Sum of Mulliken charges =  -1.00000

 Dipole moment (field-independent basis, Debye):
    X=              3.7196    Y=             -0.0002    Z=              0.0035  Tot=              3.7196
 Quadrupole moment (field-independent basis, Debye-Ang):
   XX=            -85.1468   YY=            -42.4457   ZZ=            -42.4471
   XY=              0.0003   XZ=             -0.0045   YZ=              0.0000

  Exact polarizability: 180.226   0.000  49.304   0.000  -0.001  49.321
 Approx polarizability: 201.663   0.000  60.479  -0.001  -0.000  60.481

 ******    1 imaginary frequencies (negative Signs) ******

                      1                      2                      3
                      A                      A                      A
 Frequencies --   -407.6657               168.8440               169.2092
 Red. masses --     12.6093                 4.2314                15.8739
 Frc consts  --      1.2347                 0.0711                 0.2678
 IR Inten    --   1791.9227                14.6812                 5.4398

                      4                      5                      6
                      A                      A                      A
 Frequencies --    170.0498               895.3416               896.4634
 Red. masses --      4.8897                 1.0110                 1.0110
 Frc consts  --      0.0833                 0.4775                 0.4787
 IR Inten    --     12.9412                 0.2359                 0.2533

                      7                      8                      9
                      A                      A                      A
 Frequencies --   1025.0626              1399.4488              1399.7527
 Red. masses --      1.0375                 1.1033                 1.1032
 Frc consts  --      0.6423                 1.2731                 1.2736
 IR Inten    --    233.1900                 7.4020                 7.5070

                     10                     11                     12
                      A                      A                      A
 Frequencies --   3192.3440              3387.7787              3387.8360
 Red. masses --      1.0079                 1.1232                 1.1231
 Frc consts  --      6.0517                 7.5949                 7.5946
 IR Inten    --      0.6005                 8.0663                 7.7734

 - Thermochemistry -
 -------------------
 Temperature   298.150 Kelvin.  Pressure   1.00000 Atm.
 Atom     1 has atomic number  6 and mass  12.00000

 Molecular mass:   128.91066 amu.
 Principal axes and moments of inertia in atomic units:
                           1         2         3
     Eigenvalues --    12.374792087.843402087.84408
           X            1.00000   0.00000  -0.00000
           Y           -0.00000   1.00000   0.00263
           Z            0.00000  -0.00263   1.00000
 This molecule is an asymmetric top.
 Rotational symmetry number  1.
 Rotational temperatures (Kelvin)      6.99922     0.04148     0.04148
 Rotational constants (GHZ):         145.84012     0.86440     0.86440
    1 imaginary frequencies ignored.
 Zero-point vibrational energy      96252.3 (Joules/Mol)
                                   23.00486 (Kcal/Mol)
 Warning -- explicit consideration of   3 degrees of freedom as
           vibrations may cause significant error
 Vibrational temperatures:    242.93   243.45   244.66  1288.20  1289.81
          (Kelvin)           1474.84  2013.49  2013.93  4593.07  4874.26
                             4874.34

 Zero-point correction=                           0.036661 (Hartree/Particle)
 Thermal correction to Energy=                    0.041482
 Thermal correction to Enthalpy=                  0.042426
 Thermal correction to Gibbs Free Energy=         0.007409
 Sum of electronic and zero-point Energies=          -3074.464135
 Sum of electronic and thermal Energies=             -3074.459313
 Sum of electronic and thermal Enthalpies=           -3074.458369
 Sum of electronic and thermal Free Energies=        -3074.493386

                     E (Thermal)             CV                S
                      KCal/Mol        Cal/Mol-Kelvin    Cal/Mol-Kelvin
 Total                   26.030             13.176             73.699
 Electronic               0.000              0.000              0.000
 Translational            0.889              2.981             40.475
 Rotational               0.889              2.981             25.492
 Vibrational             24.253              7.215              7.732
 Vibration     1          0.625              1.881              2.448
 Vibration     2          0.625              1.880              2.444
 Vibration     3          0.625              1.879              2.435

 Optimization completed.
    -- Stationary point found.
 Normal termination of Gaussian 16 at Fri Oct 18 01:10:26 2019.
