 Gaussian 16, Revision A.03,
 Gaussian 16:  ES64L-G16RevA.03 25-Dec-2016

 ----------------------------------------------------------------------
 #p opt=(calcall,ts,noeigen) freq b3lyp def2tzvp em=gd3bj scrf=(pcm,sol
 vent=dichloromethane)
 ----------------------------------------------------------------------

 -------------------
 Title Card Required
 -------------------
 Symbolic Z-matrix:
 Charge = -1 Multiplicity = 1

 SCF Done:  E(RB3LYP) =  -3074.50086366     A.U. after   11 cycles
 SCF Done:  E(RB3LYP) =  -3074.50063708     A.U. after   10 cycles
 Optimization completed.
    -- Stationary point found.
 ******    1 imaginary frequencies (negative Signs) ******
    1 imaginary frequencies ignored.
 Normal termination of Gaussian 16 at Fri Oct 18 01:08:12 2019.

 --------------------------------------------------------------------
 #P Geom=AllCheck Guess=TCheck SCRF=Check GenChk RB3LYP/def2TZVP Freq
 --------------------------------------------------------------------

 Structure from the checkpoint file:  "ts_pcm_dichloromethane_maugccpvtz.chk"
 -------------------
 Title Card Required
 -------------------
 Charge = -1 Multiplicity = 1

                         Standard orientation:
 ---------------------------------------------------------------------
 Center     Atomic      Atomic             Coordinates (Angstroms)
 Number     Number       Type             X           Y           Z
 ---------------------------------------------------------------------
      1          6           0       -0.743270    0.000657   -0.000290
      2          1           0       -0.762310   -0.040154   -1.069951
      3          1           0       -0.762337   -0.905366    0.569708
      4          1           0       -0.763279    0.947407    0.499081
      5         17           0       -3.135646   -0.000185    0.000081
      6         35           0        1.715815   -0.000077    0.000044
 ---------------------------------------------------------------------

 SCF Done:  E(RB3LYP) =  -3074.50063708     A.U. after    1 cycles

 The electronic state is 1-A.
 Alpha  occ. eigenvalues -- -482.77487-101.41973 -62.42344 -56.23819 -56.23667
 Alpha  occ. eigenvalues --  -56.23667 -10.21562  -9.35184  -8.61430  -7.10982
 Alpha  occ. eigenvalues --   -7.10660  -7.10660  -6.43958  -6.43493  -6.43493
 Alpha  occ. eigenvalues --   -2.55474  -2.55349  -2.55349  -2.54979  -2.54979
 Alpha  occ. eigenvalues --   -0.72926  -0.69619  -0.64970  -0.43155  -0.43152
 Alpha  occ. eigenvalues --   -0.30477  -0.24502  -0.24501  -0.23598  -0.23597
 Alpha  occ. eigenvalues --   -0.22550
 Alpha virt. eigenvalues --   -0.02547   0.07063   0.13236   0.13240   0.20967
 Alpha virt. eigenvalues --    0.21701   0.21703   0.27721   0.28665   0.28667
 Alpha virt. eigenvalues --    0.33849   0.33854   0.35227   0.36392   0.36393

 Mulliken charges:
               1
     1  C   -0.158314
     2  H    0.165120
     3  H    0.165257
     4  H    0.165309
     5  Cl  -0.685850
     6  Br  -0.651521
 Sum of Mulliken charges =  -1.00000

 Dipole moment (field-independent basis, Debye):
    X=              3.7354    Y=              0.0023    Z=              0.0011  Tot=              3.7354
 Quadrupole moment (field-independent basis, Debye-Ang):
   XX=            -85.0819   YY=            -42.4446   ZZ=            -42.4468
   XY=             -0.0041   XZ=             -0.0001   YZ=              0.0001

  Exact polarizability: 178.917  -0.001  48.340  -0.001  -0.005  48.356
 Approx polarizability: 202.041  -0.003  60.478  -0.001  -0.001  60.481

 ******    1 imaginary frequencies (negative Signs) ******

                      1                      2                      3
                      A                      A                      A
 Frequencies --   -403.6485               166.2127               169.0307
 Red. masses --     12.6072                 4.2189                22.8742
 Frc consts  --      1.2102                 0.0687                 0.3851
 IR Inten    --   1767.3836                14.5365                 4.7562

                      4                      5                      6
                      A                      A                      A
 Frequencies --    176.0815               890.2115               894.2980
 Red. masses --      4.4772                 1.0110                 1.0111
 Frc consts  --      0.0818                 0.4721                 0.4764
 IR Inten    --     13.6455                 0.2733                 0.2506

                      7                      8                      9
                      A                      A                      A
 Frequencies --   1021.3998              1398.5001              1400.1943
 Red. masses --      1.0374                 1.1037                 1.1032
 Frc consts  --      0.6377                 1.2718                 1.2743
 IR Inten    --    228.0548                 6.9022                 7.2721

                     10                     11                     12
                      A                      A                      A
 Frequencies --   3193.4340              3387.7224              3390.1226
 Red. masses --      1.0079                 1.1234                 1.1229
 Frc consts  --      6.0560                 7.5961                 7.6034
 IR Inten    --      0.6203                 8.0995                 7.9740

 - Thermochemistry -
 -------------------
 Temperature   298.150 Kelvin.  Pressure   1.00000 Atm.
 Atom     1 has atomic number  6 and mass  12.00000

 Molecular mass:   128.91066 amu.
 Principal axes and moments of inertia in atomic units:
                           1         2         3
     Eigenvalues --    12.370992087.793452087.79503
           X            1.00000  -0.00000   0.00000
           Y            0.00000   0.99999   0.00340
           Z           -0.00000  -0.00340   0.99999
 This molecule is an asymmetric top.
 Rotational symmetry number  1.
 Rotational temperatures (Kelvin)      7.00137     0.04149     0.04149
 Rotational constants (GHZ):         145.88497     0.86443     0.86442
    1 imaginary frequencies ignored.
 Zero-point vibrational energy      96222.9 (Joules/Mol)
                                   22.99782 (Kcal/Mol)
 Warning -- explicit consideration of   3 degrees of freedom as
           vibrations may cause significant error
 Vibrational temperatures:    239.14   243.20   253.34  1280.82  1286.70
          (Kelvin)           1469.57  2012.13  2014.57  4594.64  4874.18
                             4877.63

 Zero-point correction=                           0.036649 (Hartree/Particle)
 Thermal correction to Energy=                    0.041468
 Thermal correction to Enthalpy=                  0.042412
 Thermal correction to Gibbs Free Energy=         0.007409
 Sum of electronic and zero-point Energies=          -3074.463988
 Sum of electronic and thermal Energies=             -3074.459169
 Sum of electronic and thermal Enthalpies=           -3074.458225
 Sum of electronic and thermal Free Energies=        -3074.493229

                     E (Thermal)             CV                S
                      KCal/Mol        Cal/Mol-Kelvin    Cal/Mol-Kelvin
 Total                   26.021             13.186             73.671
 Electronic               0.000              0.000              0.000
 Translational            0.889              2.981             40.475
 Rotational               0.889              2.981             25.492
 Vibrational             24.244              7.225              7.704
 Vibration     1          0.624              1.884              2.478
 Vibration     2          0.625              1.881              2.446
 Vibration     3          0.628              1.872              2.370

 Optimization completed.
    -- Stationary point found.
 Normal termination of Gaussian 16 at Fri Oct 18 01:08:40 2019.
