 Gaussian 16, Revision A.03,
 Gaussian 16:  ES64L-G16RevA.03 25-Dec-2016

 --------------------------------------------------------
 #p b3lyp/def2tzvp em=gd3bj opt=(ts,noeigen,calcall) freq
 --------------------------------------------------------

 -------------------
 Title Card Required
 -------------------
 Symbolic Z-matrix:
 Charge = -1 Multiplicity = 1

 SCF Done:  E(RB3LYP) =  -3074.42415988     A.U. after   14 cycles
 SCF Done:  E(RB3LYP) =  -3074.42580704     A.U. after   12 cycles
 SCF Done:  E(RB3LYP) =  -3074.42591656     A.U. after   12 cycles
 SCF Done:  E(RB3LYP) =  -3074.42592014     A.U. after    8 cycles
 Optimization completed.
    -- Stationary point found.
 ******    1 imaginary frequencies (negative Signs) ******
    1 imaginary frequencies ignored.
 Normal termination of Gaussian 16 at Thu Oct 17 18:24:09 2019.

 --------------------------------------------------------------------
 #P Geom=AllCheck Guess=TCheck SCRF=Check GenChk RB3LYP/def2TZVP Freq
 --------------------------------------------------------------------

 Structure from the checkpoint file:  "ts_maugccpvtz.chk"
 -------------------
 Title Card Required
 -------------------
 Charge = -1 Multiplicity = 1

                         Standard orientation:
 ---------------------------------------------------------------------
 Center     Atomic      Atomic             Coordinates (Angstroms)
 Number     Number       Type             X           Y           Z
 ---------------------------------------------------------------------
      1          6           0        0.704300    0.000015    0.000271
      2          1           0        0.758398   -0.939298   -0.508737
      3          1           0        0.758398    0.910520   -0.558639
      4          1           0        0.758363    0.028828    1.068261
      5         17           0        3.145737   -0.000004   -0.000074
      6         35           0       -1.713671   -0.000002   -0.000036
 ---------------------------------------------------------------------

 SCF Done:  E(RB3LYP) =  -3074.42592014     A.U. after    1 cycles

 The electronic state is 1-A.
 Alpha  occ. eigenvalues -- -482.64209-101.26759 -62.29058 -56.10546 -56.10375
 Alpha  occ. eigenvalues --  -56.10375 -10.08008  -9.19949  -8.48141  -6.95750
 Alpha  occ. eigenvalues --   -6.95427  -6.95427  -6.30707  -6.30184  -6.30184
 Alpha  occ. eigenvalues --   -2.42216  -2.42075  -2.42075  -2.41657  -2.41657
 Alpha  occ. eigenvalues --   -0.58856  -0.55347  -0.51203  -0.29797  -0.29796
 Alpha  occ. eigenvalues --   -0.16520  -0.10322  -0.10322  -0.08969  -0.08969
 Alpha  occ. eigenvalues --   -0.08183
 Alpha virt. eigenvalues --    0.11175   0.19358   0.25578   0.25579   0.34057
 Alpha virt. eigenvalues --    0.34693   0.34694   0.41792   0.42091   0.42091
 Alpha virt. eigenvalues --    0.47584   0.47584   0.49215   0.50197   0.50197

 Mulliken charges:
               1
     1  C   -0.136181
     2  H    0.143623
     3  H    0.143622
     4  H    0.143593
     5  Cl  -0.680897
     6  Br  -0.613760
 Sum of Mulliken charges =  -1.00000

 Dipole moment (field-independent basis, Debye):
    X=             -4.1455    Y=              0.0000    Z=              0.0006  Tot=              4.1455
 Quadrupole moment (field-independent basis, Debye-Ang):
   XX=            -84.3449   YY=            -42.5333   ZZ=            -42.5335
   XY=              0.0000   XZ=              0.0009   YZ=             -0.0000

  Exact polarizability: 133.630   0.000  39.043  -0.001   0.000  39.041
 Approx polarizability: 211.173   0.000  60.793  -0.000  -0.000  60.793

 ******    1 imaginary frequencies (negative Signs) ******

                      1                      2                      3
                      A                      A                      A
 Frequencies --   -304.0912               171.1620               173.9264
 Red. masses --     12.5287                38.3073                 4.1800
 Frc consts  --      0.6826                 0.6612                 0.0745
 IR Inten    --    944.4741                 3.0041                 8.7326

                      4                      5                      6
                      A                      A                      A
 Frequencies --    174.0615               872.3224               872.5123
 Red. masses --      4.1799                 1.0135                 1.0135
 Frc consts  --      0.0746                 0.4544                 0.4546
 IR Inten    --      8.7331                 0.1377                 0.1376

                      7                      8                      9
                      A                      A                      A
 Frequencies --    998.7675              1408.8727              1408.9217
 Red. masses --      1.0365                 1.1020                 1.1020
 Frc consts  --      0.6092                 1.2888                 1.2889
 IR Inten    --    125.3409                 4.0195                 4.0180

                     10                     11                     12
                      A                      A                      A
 Frequencies --   3203.6916              3395.2326              3395.3752
 Red. masses --      1.0082                 1.1224                 1.1224
 Frc consts  --      6.0969                 7.6234                 7.6240
 IR Inten    --      0.0903                 3.4127                 3.4199

 - Thermochemistry -
 -------------------
 Temperature   298.150 Kelvin.  Pressure   1.00000 Atm.
 Atom     1 has atomic number  6 and mass  12.00000

 Molecular mass:   128.91066 amu.
 Principal axes and moments of inertia in atomic units:
                           1         2         3
     Eigenvalues --    12.323842091.160662091.16097
           X            1.00000   0.00000   0.00000
           Y           -0.00000   1.00000  -0.00038
           Z           -0.00000   0.00038   1.00000
 This molecule is an asymmetric top.
 Rotational symmetry number  1.
 Rotational temperatures (Kelvin)      7.02816     0.04142     0.04142
 Rotational constants (GHZ):         146.44304     0.86303     0.86303
    1 imaginary frequencies ignored.
 Zero-point vibrational energy      96148.9 (Joules/Mol)
                                   22.98015 (Kcal/Mol)
 Warning -- explicit consideration of   3 degrees of freedom as
           vibrations may cause significant error
 Vibrational temperatures:    246.26   250.24   250.44  1255.08  1255.35
          (Kelvin)           1437.00  2027.05  2027.12  4609.40  4884.98
                             4885.19

 Zero-point correction=                           0.036621 (Hartree/Particle)
 Thermal correction to Energy=                    0.041437
 Thermal correction to Enthalpy=                  0.042382
 Thermal correction to Gibbs Free Energy=         0.007406
 Sum of electronic and zero-point Energies=          -3074.389299
 Sum of electronic and thermal Energies=             -3074.384483
 Sum of electronic and thermal Enthalpies=           -3074.383538
 Sum of electronic and thermal Free Energies=        -3074.418514

                     E (Thermal)             CV                S
                      KCal/Mol        Cal/Mol-Kelvin    Cal/Mol-Kelvin
 Total                   26.002             13.250             73.613
 Electronic               0.000              0.000              0.000
 Translational            0.889              2.981             40.475
 Rotational               0.889              2.981             25.491
 Vibrational             24.225              7.289              7.647
 Vibration     1          0.626              1.878              2.423
 Vibration     2          0.627              1.875              2.393
 Vibration     3          0.627              1.874              2.391

 Optimization completed.
    -- Stationary point found.
 Normal termination of Gaussian 16 at Thu Oct 17 18:24:23 2019.
