 Gaussian 16, Revision A.03,
 Gaussian 16:  ES64L-G16RevA.03 25-Dec-2016

 ----------------------------------------------------------------------
 #p irc=(calcfc,lqa,maxpoint=30) pbe1pbe/def2tzvp em=gd3bj geom=allchec
 k scrf=(smd,solvent=benzene)
 ----------------------------------------------------------------------

 Structure from the checkpoint file:  "Pt_ircb.chk"
 -------------------
 Title Card Required
 -------------------
 Charge =  0 Multiplicity = 1

 SCF Done:  E(RPBE1PBE) =  -1042.39529049     A.U. after   12 cycles
 SCF Done:  E(RPBE1PBE) =  -1042.39530253     A.U. after    9 cycles
 SCF Done:  E(RPBE1PBE) =  -1042.39533982     A.U. after    9 cycles
 SCF Done:  E(RPBE1PBE) =  -1042.39539915     A.U. after    9 cycles
 SCF Done:  E(RPBE1PBE) =  -1042.39547784     A.U. after    9 cycles
 SCF Done:  E(RPBE1PBE) =  -1042.39557462     A.U. after    9 cycles
 SCF Done:  E(RPBE1PBE) =  -1042.39568748     A.U. after    9 cycles
 SCF Done:  E(RPBE1PBE) =  -1042.39581527     A.U. after    9 cycles
 SCF Done:  E(RPBE1PBE) =  -1042.39595578     A.U. after    9 cycles
 SCF Done:  E(RPBE1PBE) =  -1042.39611099     A.U. after    9 cycles
 SCF Done:  E(RPBE1PBE) =  -1042.39698815     A.U. after    8 cycles
 SCF Done:  E(RPBE1PBE) =  -1042.39706255     A.U. after    8 cycles
 SCF Done:  E(RPBE1PBE) =  -1042.39713735     A.U. after    8 cycles
 SCF Done:  E(RPBE1PBE) =  -1042.39721182     A.U. after    8 cycles
 SCF Done:  E(RPBE1PBE) =  -1042.39728486     A.U. after    9 cycles
 SCF Done:  E(RPBE1PBE) =  -1042.39735813     A.U. after    8 cycles
 SCF Done:  E(RPBE1PBE) =  -1042.39743331     A.U. after    8 cycles
 SCF Done:  E(RPBE1PBE) =  -1042.39750872     A.U. after    8 cycles
 SCF Done:  E(RPBE1PBE) =  -1042.39758419     A.U. after    8 cycles
 SCF Done:  E(RPBE1PBE) =  -1042.39765990     A.U. after    8 cycles

                          Input orientation:
 ---------------------------------------------------------------------
 Center     Atomic      Atomic             Coordinates (Angstroms)
 Number     Number       Type             X           Y           Z
 ---------------------------------------------------------------------
      1         78           0        0.000028   -0.404243    0.008297
      2         15           0        2.124605    0.384249   -0.015146
      3         15           0       -2.124709    0.384235   -0.001222
      4          6           0        2.658462    1.352619    1.434251
      5          1           0        2.512247    0.757270    2.337886
      6          1           0        3.711658    1.639761    1.360319
      7          1           0        2.041285    2.248987    1.517572
      8          6           0        3.452768   -0.872829   -0.090093
      9          1           0        3.320179   -1.476755   -0.990606
     10          1           0        4.452251   -0.427064   -0.099780
     11          1           0        3.362843   -1.535964    0.773230
     12          6           0        2.609399    1.465351   -1.400962
     13          1           0        1.990795    2.364595   -1.390836
     14          1           0        3.665189    1.746803   -1.343071
     15          1           0        2.429379    0.943161   -2.343023
     16          6           0       -2.609029    1.517863    1.342131
     17          1           0       -1.990099    2.415852    1.297789
     18          1           0       -3.664693    1.797302    1.273305
     19          1           0       -2.429480    1.031910    2.303469
     20          6           0       -3.453020   -0.868822    0.122279
     21          1           0       -4.452466   -0.422952    0.113844
     22          1           0       -3.362681   -1.565386   -0.714261
     23          1           0       -3.320979   -1.436869    1.045926
     24          6           0       -2.658743    1.295847   -1.486854
     25          1           0       -2.514129    0.665219   -2.366511
     26          1           0       -3.711490    1.587104   -1.423364
     27          1           0       -2.040375    2.187322   -1.605879
     28          1           0       -0.442972   -2.127630    0.052043
     29          1           0        0.443216   -2.127422    0.043492
 ---------------------------------------------------------------------

 Alpha  occ. eigenvalues --  -77.21376 -77.21375 -10.20896 -10.20893 -10.20872
 Alpha  occ. eigenvalues --  -10.20871 -10.20630 -10.20630  -6.60638  -6.60637
 Alpha  occ. eigenvalues --   -4.74253  -4.74252  -4.74232  -4.74231  -4.73925
 Alpha  occ. eigenvalues --   -4.73924  -3.90329  -2.14909  -2.13982  -2.12440
 Alpha  occ. eigenvalues --   -0.78627  -0.78472  -0.70714  -0.70703  -0.70474
 Alpha  occ. eigenvalues --   -0.70465  -0.55926  -0.54709  -0.48547  -0.45193
 Alpha  occ. eigenvalues --   -0.44898  -0.43592  -0.43529  -0.43503  -0.43448
 Alpha  occ. eigenvalues --   -0.40923  -0.40877  -0.40742  -0.40701  -0.39062
 Alpha  occ. eigenvalues --   -0.39037  -0.35602  -0.34286  -0.34131  -0.34038
 Alpha  occ. eigenvalues --   -0.33461  -0.30910  -0.24553  -0.23375  -0.21667
 Alpha  occ. eigenvalues --   -0.21259  -0.18304
 Alpha virt. eigenvalues --   -0.00697   0.03790   0.05165   0.06378   0.07384
 Alpha virt. eigenvalues --    0.07671   0.08592   0.08977   0.09288   0.09481
 Alpha virt. eigenvalues --    0.10058   0.10329   0.10641   0.11354   0.11525

 Mulliken charges:
               1
     1  Pt  -0.231478
     2  P    0.114527
     3  P    0.114456
     4  C   -0.429520
     5  H    0.152732
     6  H    0.135674
     7  H    0.150374
     8  C   -0.439649
     9  H    0.149659
    10  H    0.131509
    11  H    0.148925
    12  C   -0.426816
    13  H    0.149376
    14  H    0.135256
    15  H    0.152235
    16  C   -0.426839
    17  H    0.149388
    18  H    0.135292
    19  H    0.152222
    20  C   -0.439679
    21  H    0.131528
    22  H    0.148984
    23  H    0.149622
    24  C   -0.429338
    25  H    0.152680
    26  H    0.135652
    27  H    0.150338
    28  H   -0.008527
    29  H   -0.008584
 Sum of Mulliken charges =  -0.00000

 Dipole moment (field-independent basis, Debye):
    X=             -0.0012    Y=              1.5435    Z=             -0.0280  Tot=              1.5438
 Quadrupole moment (field-independent basis, Debye-Ang):
   XX=            -79.1815   YY=            -92.2032   ZZ=            -92.1944
   XY=              0.0012   XZ=              0.0288   YZ=             -0.0005

  Exact polarizability:   0.000   0.000   0.000   0.000   0.000   0.000
 Approx polarizability: 279.106   0.007 241.247  -0.193  -0.303 227.610

 Normal termination of Gaussian 16 at Sat Nov  9 18:17:17 2019.
