 Gaussian 16, Revision A.03,
 Gaussian 16:  ES64L-G16RevA.03 25-Dec-2016

 ----------------------------------------------------------------------
 #p irc=(calcfc,lqa,maxpoint=50,stepsize=15) pbe1pbe/def2tzvp em=gd3bj
 geom=allcheck scrf=(smd,solvent=benzene)
 ----------------------------------------------------------------------

 Structure from the checkpoint file:  "Pt_ircb2.chk"
 -------------------
 Title Card Required
 -------------------
 Charge =  0 Multiplicity = 1

 SCF Done:  E(RPBE1PBE) =  -1042.39529049     A.U. after   12 cycles
 SCF Done:  E(RPBE1PBE) =  -1042.39531812     A.U. after    9 cycles
 SCF Done:  E(RPBE1PBE) =  -1042.39539881     A.U. after    9 cycles
 SCF Done:  E(RPBE1PBE) =  -1042.39552367     A.U. after    9 cycles
 SCF Done:  E(RPBE1PBE) =  -1042.39568650     A.U. after    9 cycles
 SCF Done:  E(RPBE1PBE) =  -1042.39588050     A.U. after    9 cycles
 SCF Done:  E(RPBE1PBE) =  -1042.39609574     A.U. after    9 cycles
 SCF Done:  E(RPBE1PBE) =  -1042.39633690     A.U. after    9 cycles
 SCF Done:  E(RPBE1PBE) =  -1042.39662183     A.U. after    9 cycles
 SCF Done:  E(RPBE1PBE) =  -1042.39693411     A.U. after    9 cycles
 SCF Done:  E(RPBE1PBE) =  -1042.40039513     A.U. after    9 cycles
 SCF Done:  E(RPBE1PBE) =  -1042.40065753     A.U. after    9 cycles
 SCF Done:  E(RPBE1PBE) =  -1042.40102724     A.U. after    9 cycles
 SCF Done:  E(RPBE1PBE) =  -1042.40159796     A.U. after    9 cycles
 SCF Done:  E(RPBE1PBE) =  -1042.40257633     A.U. after    9 cycles
 SCF Done:  E(RPBE1PBE) =  -1042.40413757     A.U. after    9 cycles
 SCF Done:  E(RPBE1PBE) =  -1042.40632723     A.U. after    9 cycles
 SCF Done:  E(RPBE1PBE) =  -1042.40882168     A.U. after    9 cycles
 SCF Done:  E(RPBE1PBE) =  -1042.41126593     A.U. after    9 cycles
 SCF Done:  E(RPBE1PBE) =  -1042.41334050     A.U. after    9 cycles

                          Input orientation:
 ---------------------------------------------------------------------
 Center     Atomic      Atomic             Coordinates (Angstroms)
 Number     Number       Type             X           Y           Z
 ---------------------------------------------------------------------
      1         78           0        0.000002   -0.508348    0.012170
      2         15           0        2.064027    0.487574   -0.020359
      3         15           0       -2.063999    0.487873   -0.005933
      4          6           0        2.531118    1.471988    1.437891
      5          1           0        2.427394    0.859824    2.336184
      6          1           0        3.556926    1.844830    1.371503
      7          1           0        1.844513    2.316383    1.527322
      8          6           0        3.450655   -0.695108   -0.107141
      9          1           0        3.352881   -1.300884   -1.009772
     10          1           0        4.408848   -0.168109   -0.123910
     11          1           0        3.414472   -1.361168    0.756381
     12          6           0        2.472047    1.603196   -1.399993
     13          1           0        1.787900    2.454138   -1.375630
     14          1           0        3.502475    1.966210   -1.351983
     15          1           0        2.318310    1.079097   -2.345712
     16          6           0       -2.471751    1.652618    1.332681
     17          1           0       -1.787660    2.502224    1.278760
     18          1           0       -3.502136    2.013315    1.269358
     19          1           0       -2.320053    1.162680    2.296827
     20          6           0       -3.450259   -0.691304    0.124489
     21          1           0       -4.409084   -0.165278    0.113277
     22          1           0       -3.408749   -1.393580   -0.709649
     23          1           0       -3.356596   -1.257902    1.052578
     24          6           0       -2.532143    1.418451   -1.498659
     25          1           0       -2.427838    0.773845   -2.373944
     26          1           0       -3.557935    1.793696   -1.446901
     27          1           0       -1.845254    2.258833   -1.618789
     28          1           0       -0.882246   -1.845717    0.068025
     29          1           0        0.886550   -1.845258    0.058194
 ---------------------------------------------------------------------

 Alpha  occ. eigenvalues --  -77.21965 -77.21963 -10.21320 -10.21305 -10.21298
 Alpha  occ. eigenvalues --  -10.21280 -10.20970 -10.20965  -6.61278  -6.61277
 Alpha  occ. eigenvalues --   -4.74889  -4.74888  -4.74870  -4.74869  -4.74558
 Alpha  occ. eigenvalues --   -4.74557  -3.92964  -2.17599  -2.16760  -2.14300
 Alpha  occ. eigenvalues --   -0.79188  -0.79034  -0.71203  -0.71177  -0.70904
 Alpha  occ. eigenvalues --   -0.70881  -0.56370  -0.55309  -0.46369  -0.45375
 Alpha  occ. eigenvalues --   -0.44120  -0.43935  -0.43924  -0.43861  -0.41452
 Alpha  occ. eigenvalues --   -0.41404  -0.41321  -0.41314  -0.39453  -0.39404
 Alpha  occ. eigenvalues --   -0.38847  -0.36880  -0.34952  -0.34745  -0.34585
 Alpha  occ. eigenvalues --   -0.33673  -0.32732  -0.26143  -0.25748  -0.24954
 Alpha  occ. eigenvalues --   -0.22689  -0.19635
 Alpha virt. eigenvalues --   -0.00832   0.03272   0.04532   0.06015   0.06831
 Alpha virt. eigenvalues --    0.07480   0.08538   0.08766   0.08910   0.09037
 Alpha virt. eigenvalues --    0.09845   0.10248   0.10734   0.11181   0.11469

 Mulliken charges:
               1
     1  Pt  -0.171465
     2  P    0.125258
     3  P    0.125929
     4  C   -0.435208
     5  H    0.158917
     6  H    0.140079
     7  H    0.148912
     8  C   -0.441224
     9  H    0.159889
    10  H    0.134580
    11  H    0.160274
    12  C   -0.433187
    13  H    0.147254
    14  H    0.139680
    15  H    0.157437
    16  C   -0.433605
    17  H    0.147518
    18  H    0.139988
    19  H    0.157788
    20  C   -0.441145
    21  H    0.134560
    22  H    0.160198
    23  H    0.159911
    24  C   -0.434815
    25  H    0.158529
    26  H    0.139886
    27  H    0.148677
    28  H   -0.077227
    29  H   -0.077386
 Sum of Mulliken charges =  -0.00000

 Dipole moment (field-independent basis, Debye):
    X=             -0.0030    Y=              4.1180    Z=             -0.0958  Tot=              4.1191
 Quadrupole moment (field-independent basis, Debye-Ang):
   XX=            -76.1031   YY=            -95.5674   ZZ=            -91.4162
   XY=             -0.0094   XZ=              0.0171   YZ=              0.1493

  Exact polarizability:   0.000   0.000   0.000   0.000   0.000   0.000
 Approx polarizability: 273.558  -0.040 238.083  -0.319  -0.489 222.210

 Normal termination of Gaussian 16 at Sat Nov  9 23:00:50 2019.
