 Gaussian 16, Revision A.03,
 Gaussian 16:  ES64L-G16RevA.03 25-Dec-2016

 ----------------------------------------------------------------------
 #p pbe1pbe/def2tzvp opt freq em=gd3bj geom=allcheck scrf=(smd,solvent=
 benzene)
 ----------------------------------------------------------------------

 Structure from the checkpoint file:  "Pt_preR2.chk"
 -------------------
 Title Card Required
 -------------------
 Charge =  0 Multiplicity = 1

 SCF Done:  E(RPBE1PBE) =  -1041.23405426     A.U. after   12 cycles
 SCF Done:  E(RPBE1PBE) =  -1041.23404764     A.U. after    8 cycles
 SCF Done:  E(RPBE1PBE) =  -1041.23405448     A.U. after    9 cycles
 SCF Done:  E(RPBE1PBE) =  -1041.23404644     A.U. after    8 cycles
 SCF Done:  E(RPBE1PBE) =  -1041.23405723     A.U. after    7 cycles
 SCF Done:  E(RPBE1PBE) =  -1041.23404596     A.U. after    7 cycles
 SCF Done:  E(RPBE1PBE) =  -1041.23401087     A.U. after    9 cycles
 SCF Done:  E(RPBE1PBE) =  -1041.23405050     A.U. after    9 cycles
 SCF Done:  E(RPBE1PBE) =  -1041.23404677     A.U. after    7 cycles
 SCF Done:  E(RPBE1PBE) =  -1041.23403801     A.U. after    8 cycles
 SCF Done:  E(RPBE1PBE) =  -1041.23404213     A.U. after    7 cycles
 SCF Done:  E(RPBE1PBE) =  -1041.23404082     A.U. after    7 cycles
 SCF Done:  E(RPBE1PBE) =  -1041.23405196     A.U. after    7 cycles
 SCF Done:  E(RPBE1PBE) =  -1041.23404592     A.U. after    7 cycles
 SCF Done:  E(RPBE1PBE) =  -1041.23404844     A.U. after    7 cycles
 Optimization completed.
    -- Stationary point found.
 Normal termination of Gaussian 16 at Wed Nov 13 13:45:50 2019.

 ----------------------------------------------------------------------
 #P Geom=AllCheck Guess=TCheck SCRF=Check GenChk RPBE1PBE/def2TZVP Freq
 ----------------------------------------------------------------------

 Structure from the checkpoint file:  "Pt_preR2.chk"
 -------------------
 Title Card Required
 -------------------
 Charge =  0 Multiplicity = 1

                         Standard orientation:
 ---------------------------------------------------------------------
 Center     Atomic      Atomic             Coordinates (Angstroms)
 Number     Number       Type             X           Y           Z
 ---------------------------------------------------------------------
      1         78           0       -0.000006    0.000021    0.000629
      2         15           0        2.246905   -0.000082    0.000086
      3         15           0       -2.246902    0.000005    0.000117
      4          6           0        3.048879   -1.040651   -1.263016
      5          1           0        2.729263   -0.714160   -2.254559
      6          1           0        4.139365   -0.985108   -1.197660
      7          1           0        2.731423   -2.076763   -1.130667
      8          6           0        3.049563    1.613433   -0.271014
      9          1           0        2.732377    2.309153    0.508244
     10          1           0        4.139992    1.528078   -0.257907
     11          1           0        2.730437    2.017251   -1.233820
     12          6           0        3.052224   -0.572757    1.531303
     13          1           0        2.735095   -1.595405    1.744552
     14          1           0        4.142475   -0.541839    1.448632
     15          1           0        2.735065    0.058923    2.363336
     16          6           0       -3.052127   -0.601159    1.520358
     17          1           0       -2.734772    0.014934    2.363914
     18          1           0       -4.142367   -0.568552    1.438396
     19          1           0       -2.735093   -1.627627    1.714518
     20          6           0       -3.048878   -1.017116   -1.282046
     21          1           0       -4.139370   -0.963204   -1.215316
     22          1           0       -2.729758   -0.672132   -2.267448
     23          1           0       -2.731017   -2.055428   -1.169173
     24          6           0       -3.049614    1.618201   -0.241011
     25          1           0       -2.730253    2.040073   -1.195978
     26          1           0       -4.140018    1.532395   -0.229852
     27          1           0       -2.732725    2.299214    0.551264
 ---------------------------------------------------------------------

 SCF Done:  E(RPBE1PBE) =  -1041.23404844     A.U. after    1 cycles

 The electronic state is 1-A.
 Alpha  occ. eigenvalues --  -77.21182 -77.21182 -10.21028 -10.21027 -10.21026
 Alpha  occ. eigenvalues --  -10.21025 -10.21025 -10.21025  -6.60579  -6.60579
 Alpha  occ. eigenvalues --   -4.74181  -4.74181  -4.74180  -4.74180  -4.73837
 Alpha  occ. eigenvalues --   -4.73836  -3.86930  -2.12440  -2.09419  -2.09418
 Alpha  occ. eigenvalues --   -0.78890  -0.78691  -0.70846  -0.70844  -0.70840
 Alpha  occ. eigenvalues --   -0.70837  -0.56189  -0.54618  -0.45713  -0.44998
 Alpha  occ. eigenvalues --   -0.43742  -0.43741  -0.43660  -0.43659  -0.41038
 Alpha  occ. eigenvalues --   -0.41037  -0.40963  -0.40962  -0.39263  -0.39260
 Alpha  occ. eigenvalues --   -0.35885  -0.34494  -0.34491  -0.34126  -0.34123
 Alpha  occ. eigenvalues --   -0.25093  -0.22814  -0.22811  -0.19471  -0.19469
 Alpha  occ. eigenvalues --   -0.19071
 Alpha virt. eigenvalues --    0.00120   0.00123   0.04408   0.05220   0.07253
 Alpha virt. eigenvalues --    0.08843   0.08845   0.09573   0.09646   0.09649
 Alpha virt. eigenvalues --    0.10846   0.11481   0.11483   0.11686   0.11691

 Mulliken charges:
               1
     1  Pt  -0.474289
     2  P    0.205036
     3  P    0.205125
     4  C   -0.438021
     5  H    0.155923
     6  H    0.136856
     7  H    0.155913
     8  C   -0.438088
     9  H    0.155924
    10  H    0.136869
    11  H    0.155983
    12  C   -0.438019
    13  H    0.155914
    14  H    0.136887
    15  H    0.155945
    16  C   -0.437988
    17  H    0.155947
    18  H    0.136883
    19  H    0.155904
    20  C   -0.438058
    21  H    0.136844
    22  H    0.155897
    23  H    0.155917
    24  C   -0.438085
    25  H    0.156000
    26  H    0.136861
    27  H    0.155919
 Sum of Mulliken charges =  -0.00000

 Dipole moment (field-independent basis, Debye):
    X=             -0.0005    Y=             -0.0004    Z=             -0.0029  Tot=              0.0030
 Quadrupole moment (field-independent basis, Debye-Ang):
   XX=            -70.6351   YY=            -89.8166   ZZ=            -89.8150
   XY=             -0.0011   XZ=             -0.0008   YZ=             -0.0013

  Exact polarizability: 258.578   0.013 176.432   0.000   0.020 176.295
 Approx polarizability: 280.794   0.002 234.460   0.001   0.001 234.455

 ******    1 imaginary frequencies (negative Signs) ******

                      1                      2                      3
                      A                      A                      A
 Frequencies --     -6.1824                23.6463                28.4138
 Red. masses --      2.8125                 4.1963                 4.2385
 Frc consts  --      0.0001                 0.0014                 0.0020
 IR Inten    --      0.0037                 2.4561                 2.4724

                      4                      5                      6
                      A                      A                      A
 Frequencies --    129.5797               131.4517               183.2628
 Red. masses --      3.0387                 3.0460                 1.0213
 Frc consts  --      0.0301                 0.0310                 0.0202
 IR Inten    --      0.0008                 0.0001                 0.0077

                      7                      8                      9
                      A                      A                      A
 Frequencies --    183.4808               188.6529               189.5981
 Red. masses --      1.0203                 2.9506                 2.9448
 Frc consts  --      0.0202                 0.0619                 0.0624
 IR Inten    --      0.0020                 0.5993                 0.5833

                     10                     11                     12
                      A                      A                      A
 Frequencies --    192.9692               209.0778               227.9745
 Red. masses --      3.0349                 4.1936                 1.0512
 Frc consts  --      0.0666                 0.1080                 0.0322
 IR Inten    --      0.0027                 5.0565                 0.0063

                     13                     14                     15
                      A                      A                      A
 Frequencies --    228.5400               229.5358               230.2556
 Red. masses --      1.0530                 1.0759                 1.0801
 Frc consts  --      0.0324                 0.0334                 0.0337
 IR Inten    --      0.0048                 0.0035                 0.0012

                     16                     17                     18
                      A                      A                      A
 Frequencies --    256.8108               257.3636               266.4197
 Red. masses --      2.3997                 2.4013                 2.6890
 Frc consts  --      0.0932                 0.0937                 0.1125
 IR Inten    --      0.0032                 0.0006                 1.5460

                     19                     20                     21
                      A                      A                      A
 Frequencies --    266.9172               334.7345               382.7524
 Red. masses --      2.6904                 3.9202                 3.7868
 Frc consts  --      0.1129                 0.2588                 0.3269
 IR Inten    --      1.4936               135.4856                 0.0012

                     22                     23                     24
                      A                      A                      A
 Frequencies --    681.6292               694.7372               741.5153
 Red. masses --      4.0218                 3.8906                 3.7609
 Frc consts  --      1.1009                 1.1064                 1.2184
 IR Inten    --    100.9220                 0.0027                28.9967

                     25                     26                     27
                      A                      A                      A
 Frequencies --    741.5936               742.2313               742.3038
 Red. masses --      3.7596                 3.8374                 3.8384
 Frc consts  --      1.2182                 1.2456                 1.2461
 IR Inten    --     29.0620                 0.2852                 0.2008

                     28                     29                     30
                      A                      A                      A
 Frequencies --    788.9304               789.0195               844.7486
 Red. masses --      1.1652                 1.1651                 1.2437
 Frc consts  --      0.4273                 0.4273                 0.5229
 IR Inten    --      0.0031                 0.0009                 0.0026

                     31                     32                     33
                      A                      A                      A
 Frequencies --    845.3848               857.7520               858.3747
 Red. masses --      1.2434                 1.2735                 1.2732
 Frc consts  --      0.5236                 0.5520                 0.5527
 IR Inten    --      0.0038                11.1540                11.4522

                     34                     35                     36
                      A                      A                      A
 Frequencies --    950.1354               958.8343               959.0114
 Red. masses --      1.4497                 1.4022                 1.4023
 Frc consts  --      0.7711                 0.7596                 0.7599
 IR Inten    --    578.4396                 2.9229                57.1531

                     37                     38                     39
                      A                      A                      A
 Frequencies --    959.4876               959.7033               975.7820
 Red. masses --      1.4008                 1.4005                 1.5330
 Frc consts  --      0.7598                 0.7600                 0.8600
 IR Inten    --     11.6536                48.5599                 0.0071

                     40                     41                     42
                      A                      A                      A
 Frequencies --   1308.4359              1308.7927              1308.9186
 Red. masses --      1.2313                 1.2311                 1.2313
 Frc consts  --      1.2420                 1.2425                 1.2429
 IR Inten    --      1.4573                44.2191                 4.5661

                     43                     44                     45
                      A                      A                      A
 Frequencies --   1309.3172              1329.2127              1330.1583
 Red. masses --      1.2311                 1.2158                 1.2144
 Frc consts  --      1.2435                 1.2657                 1.2659
 IR Inten    --     40.8972                10.2175                 0.1449

                     46                     47                     48
                      A                      A                      A
 Frequencies --   1437.3321              1437.4695              1447.0056
 Red. masses --      1.0526                 1.0526                 1.0478
 Frc consts  --      1.2812                 1.2815                 1.2926
 IR Inten    --      0.0021                 0.0116                 0.0005

                     49                     50                     51
                      A                      A                      A
 Frequencies --   1447.3169              1447.7604              1448.1076
 Red. masses --      1.0480                 1.0470                 1.0472
 Frc consts  --      1.2934                 1.2929                 1.2938
 IR Inten    --      0.0015                 0.0765                 0.0268

                     52                     53                     54
                      A                      A                      A
 Frequencies --   1453.3195              1453.4748              1454.1101
 Red. masses --      1.0476                 1.0476                 1.0477
 Frc consts  --      1.3036                 1.3039                 1.3052
 IR Inten    --      0.1031                 0.0408                35.6388

                     55                     56                     57
                      A                      A                      A
 Frequencies --   1454.2851              1468.6109              1469.7767
 Red. masses --      1.0478                 1.0430                 1.0422
 Frc consts  --      1.3056                 1.3254                 1.3265
 IR Inten    --     34.9126                 9.2571                 0.0363

                     58                     59                     60
                      A                      A                      A
 Frequencies --   3048.2011              3048.6509              3048.6769
 Red. masses --      1.0349                 1.0348                 1.0349
 Frc consts  --      5.6653                 5.6668                 5.6674
 IR Inten    --    100.5964                 3.0587                 1.0093

                     61                     62                     63
                      A                      A                      A
 Frequencies --   3048.7434              3048.8092              3048.8555
 Red. masses --      1.0349                 1.0350                 1.0350
 Frc consts  --      5.6677                 5.6682                 5.6682
 IR Inten    --      9.4421                 2.0687                10.8126

                     64                     65                     66
                      A                      A                      A
 Frequencies --   3138.1111              3138.1974              3138.2079
 Red. masses --      1.1020                 1.1020                 1.1019
 Frc consts  --      6.3937                 6.3940                 6.3940
 IR Inten    --      0.0140                 0.0051                 0.0896

                     67                     68                     69
                      A                      A                      A
 Frequencies --   3138.2878              3139.1749              3139.4680
 Red. masses --      1.1019                 1.1009                 1.1008
 Frc consts  --      6.3944                 6.3920                 6.3923
 IR Inten    --      0.4988                92.5544                 0.0472

                     70                     71                     72
                      A                      A                      A
 Frequencies --   3152.7699              3152.7761              3152.7970
 Red. masses --      1.1021                 1.1021                 1.1021
 Frc consts  --      6.4544                 6.4544                 6.4546
 IR Inten    --      0.5036                 6.7169                 3.0129

                     73                     74                     75
                      A                      A                      A
 Frequencies --   3152.8467              3152.9861              3153.0360
 Red. masses --      1.1021                 1.1020                 1.1020
 Frc consts  --      6.4548                 6.4550                 6.4552
 IR Inten    --      3.9059                 0.0692                 0.3088

 - Thermochemistry -
 -------------------
 Temperature   298.150 Kelvin.  Pressure   1.00000 Atm.
 Atom     1 has atomic number 78 and mass 194.96480

 Molecular mass:   347.05318 amu.
 Principal axes and moments of inertia in atomic units:
                           1         2         3
     Eigenvalues --   981.285534692.227264692.33162
           X            1.00000   0.00000   0.00000
           Y           -0.00000   0.99997  -0.00815
           Z           -0.00000   0.00815   0.99997
 This molecule is an asymmetric top.
 Rotational symmetry number  1.
 Warning -- assumption of classical behavior for rotation
           may cause significant error
 Rotational temperatures (Kelvin)      0.08827     0.01846     0.01846
 Rotational constants (GHZ):           1.83916     0.38462     0.38462
    1 imaginary frequencies ignored.
 Zero-point vibrational energy     601641.5 (Joules/Mol)
                                  143.79578 (Kcal/Mol)
 Warning -- explicit consideration of  20 degrees of freedom as
           vibrations may cause significant error
 Vibrational temperatures:     34.02    40.88   186.44   189.13   263.67
          (Kelvin)            263.99   271.43   272.79   277.64   300.82
                              328.00   328.82   330.25   331.29   369.49
                              370.29   383.32   384.03   481.61   550.70
                              980.71   999.57  1066.88  1066.99  1067.91
                             1068.01  1135.09  1135.22  1215.40  1216.32
                             1234.11  1235.01  1367.03  1379.55  1379.80
                             1380.49  1380.80  1403.93  1882.55  1883.06
                             1883.24  1883.82  1912.44  1913.80  2068.00
                             2068.20  2081.92  2082.37  2083.00  2083.50
                             2091.00  2091.23  2092.14  2092.39  2113.00
                             2114.68  4385.68  4386.33  4386.37  4386.46
                             4386.56  4386.62  4515.04  4515.17  4515.18
                             4515.30  4516.57  4516.99  4536.13  4536.14
                             4536.17  4536.24  4536.44  4536.52

 Zero-point correction=                           0.229153 (Hartree/Particle)
 Thermal correction to Energy=                    0.244652
 Thermal correction to Enthalpy=                  0.245596
 Thermal correction to Gibbs Free Energy=         0.185498
 Sum of electronic and zero-point Energies=          -1041.004895
 Sum of electronic and thermal Energies=             -1040.989397
 Sum of electronic and thermal Enthalpies=           -1040.988452
 Sum of electronic and thermal Free Energies=        -1041.048550

                     E (Thermal)             CV                S
                      KCal/Mol        Cal/Mol-Kelvin    Cal/Mol-Kelvin
 Total                  153.521             54.928            126.486
 Electronic               0.000              0.000              0.000
 Translational            0.889              2.981             43.427
 Rotational               0.889              2.981             31.447
 Vibrational            151.744             48.967             51.612
 Vibration     1          0.593              1.985              6.302
 Vibration     2          0.593              1.984              5.937
 Vibration     3          0.612              1.924              2.952
 Vibration     4          0.612              1.922              2.925
 Vibration     5          0.631              1.863              2.295
 Vibration     6          0.631              1.862              2.293
 Vibration     7          0.633              1.855              2.241
 Vibration     8          0.633              1.854              2.232
 Vibration     9          0.635              1.850              2.199
 Vibration    10          0.642              1.827              2.052
 Vibration    11          0.651              1.798              1.895
 Vibration    12          0.651              1.797              1.890
 Vibration    13          0.652              1.796              1.883
 Vibration    14          0.652              1.795              1.877
 Vibration    15          0.666              1.751              1.683
 Vibration    16          0.667              1.750              1.680
 Vibration    17          0.672              1.735              1.619
 Vibration    18          0.672              1.734              1.616
 Vibration    19          0.716              1.606              1.237
 Vibration    20          0.752              1.507              1.028

                           ! Non-Optimized Parameters !
 Normal termination of Gaussian 16 at Wed Nov 13 14:05:40 2019.
