 Gaussian 16, Revision A.03,
 Gaussian 16:  ES64L-G16RevA.03 25-Dec-2016

 ----------------------------------------------------------------------
 #p opt freq pbe1pbe/def2tzvp em=gd3bj geom=allcheck scrf=(smd,solvent=
 benzene)
 ----------------------------------------------------------------------

 Structure from the checkpoint file:  "Pt_P.chk"
 -------------------
 Title Card Required
 -------------------
 Charge =  0 Multiplicity = 1

 SCF Done:  E(RPBE1PBE) =  -1042.43385701     A.U. after   12 cycles
 SCF Done:  E(RPBE1PBE) =  -1042.43390473     A.U. after    9 cycles
 SCF Done:  E(RPBE1PBE) =  -1042.43324275     A.U. after   10 cycles
 SCF Done:  E(RPBE1PBE) =  -1042.43385175     A.U. after    9 cycles
 SCF Done:  E(RPBE1PBE) =  -1042.43392219     A.U. after    9 cycles
 SCF Done:  E(RPBE1PBE) =  -1042.43374491     A.U. after    9 cycles
 SCF Done:  E(RPBE1PBE) =  -1042.43377800     A.U. after   10 cycles
 SCF Done:  E(RPBE1PBE) =  -1042.43396567     A.U. after    9 cycles
 SCF Done:  E(RPBE1PBE) =  -1042.43395141     A.U. after    8 cycles
 SCF Done:  E(RPBE1PBE) =  -1042.43369630     A.U. after   10 cycles
 SCF Done:  E(RPBE1PBE) =  -1042.43393280     A.U. after    9 cycles
 SCF Done:  E(RPBE1PBE) =  -1042.43382542     A.U. after    9 cycles
 SCF Done:  E(RPBE1PBE) =  -1042.43402966     A.U. after    9 cycles
 SCF Done:  E(RPBE1PBE) =  -1042.43405410     A.U. after    8 cycles
 SCF Done:  E(RPBE1PBE) =  -1042.43405832     A.U. after    8 cycles
 SCF Done:  E(RPBE1PBE) =  -1042.43405977     A.U. after    7 cycles
 SCF Done:  E(RPBE1PBE) =  -1042.43405880     A.U. after    8 cycles
 SCF Done:  E(RPBE1PBE) =  -1042.43406105     A.U. after    8 cycles
 SCF Done:  E(RPBE1PBE) =  -1042.43406210     A.U. after    7 cycles
 Optimization completed.
    -- Stationary point found.

 1\1\GINC-C24N07\FOpt\RPBE1PBE\def2TZVP\C6H20P2Pt1\ROOT\09-Nov-2019\0\\
 #p opt freq pbe1pbe/def2tzvp em=gd3bj geom=allcheck scrf=(smd,solvent=
 benzene)\\Title Card Required\\0,1\Pt,0.0064480756,-0.725733046,0.2189
 213402\P,1.7975055139,0.6765535976,-0.0417763662\P,-1.7776773369,0.701
 0254692,0.0436566476\C,1.9484923983,1.9961253603,1.2043023874\H,1.9883
 89767,1.5436212,2.197300689\H,2.8485244417,2.596831867,1.0474865753\H,
 1.0734136966,2.6475997879,1.1654887368\C,3.4285461942,-0.1186189751,0.
 0561500544\H,3.4998803017,-0.8765357843,-0.7263807539\H,4.2422422993,0

 Normal termination of Gaussian 16 at Sat Nov  9 03:00:08 2019.

 ----------------------------------------------------------------------
 #P Geom=AllCheck Guess=TCheck SCRF=Check GenChk RPBE1PBE/def2TZVP Freq
 ----------------------------------------------------------------------

 Structure from the checkpoint file:  "Pt_P.chk"
 -------------------
 Title Card Required
 -------------------
 Charge =  0 Multiplicity = 1

                         Standard orientation:
 ---------------------------------------------------------------------
 Center     Atomic      Atomic             Coordinates (Angstroms)
 Number     Number       Type             X           Y           Z
 ---------------------------------------------------------------------
      1         78           0        0.004183   -0.882979   -0.009969
      2         15           0        1.794142    0.544707   -0.005898
      3         15           0       -1.782138    0.551769   -0.005936
      4          6           0        1.908464    1.655249    1.432992
      5          1           0        1.926527    1.054278    2.344532
      6          1           0        2.809077    2.273979    1.393433
      7          1           0        1.031403    2.303915    1.474046
      8          6           0        3.426206   -0.254269    0.007806
      9          1           0        3.520169   -0.881593   -0.880741
     10          1           0        4.238882    0.476966    0.027160
     11          1           0        3.496213   -0.903220    0.882687
     12          6           0        1.956449    1.692945   -1.409802
     13          1           0        1.106290    2.375660   -1.433451
     14          1           0        2.879791    2.274713   -1.343541
     15          1           0        1.960142    1.121022   -2.340008
     16          6           0       -2.581419    0.675465    1.623218
     17          1           0       -1.876076    1.095240    2.343551
     18          1           0       -3.476163    1.302840    1.587063
     19          1           0       -2.852354   -0.326090    1.961948
     20          6           0       -3.150075    0.037399   -1.086995
     21          1           0       -3.990330    0.735072   -1.034964
     22          1           0       -2.792721   -0.020597   -2.117235
     23          1           0       -3.480726   -0.959142   -0.790389
     24          6           0       -1.603796    2.305598   -0.472955
     25          1           0       -1.243536    2.373019   -1.501434
     26          1           0       -2.558823    2.832971   -0.399951
     27          1           0       -0.882262    2.798250    0.181838
     28          1           0       -1.102876   -2.061667    0.015217
     29          1           0        1.046110   -2.114709    0.019743
 ---------------------------------------------------------------------

 SCF Done:  E(RPBE1PBE) =  -1042.43406210     A.U. after    1 cycles

 The electronic state is 1-A.
 Alpha  occ. eigenvalues --  -77.22235 -77.22202 -10.21969 -10.21836 -10.21736
 Alpha  occ. eigenvalues --  -10.21546 -10.21293 -10.21170  -6.61590  -6.61566
 Alpha  occ. eigenvalues --   -4.75197  -4.75179  -4.75172  -4.75156  -4.74865
 Alpha  occ. eigenvalues --   -4.74839  -3.92902  -2.17216  -2.16885  -2.14198
 Alpha  occ. eigenvalues --   -0.79752  -0.79358  -0.71805  -0.71648  -0.71339
 Alpha  occ. eigenvalues --   -0.71175  -0.56667  -0.55724  -0.46984  -0.45612
 Alpha  occ. eigenvalues --   -0.44987  -0.44445  -0.44267  -0.44091  -0.41894
 Alpha  occ. eigenvalues --   -0.41651  -0.41582  -0.41210  -0.40025  -0.39644
 Alpha  occ. eigenvalues --   -0.38158  -0.37720  -0.35612  -0.35144  -0.35014
 Alpha  occ. eigenvalues --   -0.34398  -0.28375  -0.25578  -0.25131  -0.25052
 Alpha  occ. eigenvalues --   -0.24122  -0.22245
 Alpha virt. eigenvalues --   -0.00357   0.03349   0.04085   0.05942   0.07105
 Alpha virt. eigenvalues --    0.07311   0.07458   0.08080   0.09061   0.09543
 Alpha virt. eigenvalues --    0.09992   0.10246   0.10724   0.11444   0.11527

 Mulliken charges:
               1
     1  Pt  -0.158075
     2  P    0.141968
     3  P    0.095642
     4  C   -0.427775
     5  H    0.162888
     6  H    0.145276
     7  H    0.140817
     8  C   -0.449089
     9  H    0.163148
    10  H    0.136720
    11  H    0.163664
    12  C   -0.430861
    13  H    0.143843
    14  H    0.143675
    15  H    0.162580
    16  C   -0.422560
    17  H    0.151125
    18  H    0.141415
    19  H    0.166179
    20  C   -0.426051
    21  H    0.138416
    22  H    0.156755
    23  H    0.162730
    24  C   -0.443401
    25  H    0.156961
    26  H    0.152711
    27  H    0.143147
    28  H   -0.107751
    29  H   -0.104099
 Sum of Mulliken charges =  -0.00000

 Dipole moment (field-independent basis, Debye):
    X=             -0.0358    Y=              6.9699    Z=              0.0484  Tot=              6.9702
 Quadrupole moment (field-independent basis, Debye-Ang):
   XX=            -78.6327   YY=            -99.1214   ZZ=            -90.8947
   XY=              0.0422   XZ=              0.0061   YZ=             -0.0095

  Exact polarizability: 229.621  -0.983 194.578   0.178  -0.262 165.742
 Approx polarizability: 259.741  -0.686 245.439   0.114  -0.045 221.220

                      1                      2                      3
                      A                      A                      A
 Frequencies --     37.5191                62.3257                99.2463
 Red. masses --      3.3833                 2.8888                 4.4636
 Frc consts  --      0.0028                 0.0066                 0.0259
 IR Inten    --      2.3005                 0.5127                 3.7680

                      4                      5                      6
                      A                      A                      A
 Frequencies --    134.3809               143.5551               158.9687
 Red. masses --      2.9504                 2.3512                 2.0419
 Frc consts  --      0.0314                 0.0285                 0.0304
 IR Inten    --      1.1051                 3.0853                 0.9178

                      7                      8                      9
                      A                      A                      A
 Frequencies --    186.4089               189.9615               202.4127
 Red. masses --      2.3209                 1.3122                 1.3640
 Frc consts  --      0.0475                 0.0279                 0.0329
 IR Inten    --      0.5774                 0.7828                 0.3174

                     10                     11                     12
                      A                      A                      A
 Frequencies --    210.7632               212.7557               223.3231
 Red. masses --      2.4070                 2.1120                 1.1557
 Frc consts  --      0.0630                 0.0563                 0.0340
 IR Inten    --      0.4803                 0.3713                 0.1093

                     13                     14                     15
                      A                      A                      A
 Frequencies --    230.9827               249.3778               260.8292
 Red. masses --      1.1804                 1.1216                 2.3088
 Frc consts  --      0.0371                 0.0411                 0.0925
 IR Inten    --      0.1053                 0.1953                 1.4470

                     16                     17                     18
                      A                      A                      A
 Frequencies --    263.5210               269.8180               288.1118
 Red. masses --      1.5775                 2.3453                 2.2797
 Frc consts  --      0.0645                 0.1006                 0.1115
 IR Inten    --      0.5257                 2.1882                 2.4462

                     19                     20                     21
                      A                      A                      A
 Frequencies --    293.8387               353.3004               369.2728
 Red. masses --      1.3870                 3.7072                 3.2946
 Frc consts  --      0.0706                 0.2726                 0.2647
 IR Inten    --      0.7787                29.3471                 6.1235

                     22                     23                     24
                      A                      A                      A
 Frequencies --    556.7831               580.6139               606.7199
 Red. masses --      1.0922                 1.0383                 1.0537
 Frc consts  --      0.1995                 0.2062                 0.2285
 IR Inten    --      7.1117                 0.5052                32.4384

                     25                     26                     27
                      A                      A                      A
 Frequencies --    689.1403               697.2806               744.8407
 Red. masses --      3.9617                 3.8787                 3.5726
 Frc consts  --      1.1085                 1.1111                 1.1678
 IR Inten    --     27.0280                14.0063                19.6848

                     28                     29                     30
                      A                      A                      A
 Frequencies --    747.9507               749.2444               751.5982
 Red. masses --      3.5698                 3.4753                 3.4936
 Frc consts  --      1.1766                 1.1495                 1.1628
 IR Inten    --     18.1449                23.8988                10.0046

                     31                     32                     33
                      A                      A                      A
 Frequencies --    788.1619               792.1805               829.6154
 Red. masses --      1.1711                 1.1605                 1.0243
 Frc consts  --      0.4286                 0.4291                 0.4154
 IR Inten    --      0.3549                 0.0693                48.5043

                     34                     35                     36
                      A                      A                      A
 Frequencies --    858.2511               859.7223               864.7098
 Red. masses --      1.2724                 1.2696                 1.2803
 Frc consts  --      0.5522                 0.5529                 0.5640
 IR Inten    --     25.7417                15.3756                20.7551

                     37                     38                     39
                      A                      A                      A
 Frequencies --    870.1109               955.5611               957.3718
 Red. masses --      1.2945                 1.4527                 1.4126
 Frc consts  --      0.5775                 0.7815                 0.7628
 IR Inten    --     35.4712               205.9344                48.2735

                     40                     41                     42
                      A                      A                      A
 Frequencies --    958.9393               963.0130               963.6118
 Red. masses --      1.4051                 1.4057                 1.4114
 Frc consts  --      0.7613                 0.7681                 0.7722
 IR Inten    --     91.8385                21.1217                74.8210

                     43                     44                     45
                      A                      A                      A
 Frequencies --    977.5769              1307.0548              1312.8710
 Red. masses --      1.5026                 1.2375                 1.2316
 Frc consts  --      0.8460                 1.2456                 1.2507
 IR Inten    --     94.9400                15.7381                16.1395

                     46                     47                     48
                      A                      A                      A
 Frequencies --   1314.3734              1315.9502              1332.2863
 Red. masses --      1.2315                 1.2314                 1.2171
 Frc consts  --      1.2534                 1.2564                 1.2728
 IR Inten    --     20.2035                30.9943                17.3321

                     49                     50                     51
                      A                      A                      A
 Frequencies --   1335.5712              1437.4408              1439.9815
 Red. masses --      1.2140                 1.0522                 1.0515
 Frc consts  --      1.2759                 1.2809                 1.2846
 IR Inten    --      2.6427                 0.4095                 0.6814

                     52                     53                     54
                      A                      A                      A
 Frequencies --   1446.5659              1447.5827              1449.5069
 Red. masses --      1.0477                 1.0472                 1.0483
 Frc consts  --      1.2917                 1.2930                 1.2978
 IR Inten    --      1.5157                 0.9885                 0.9542

                     55                     56                     57
                      A                      A                      A
 Frequencies --   1450.5440              1453.3828              1454.8308
 Red. masses --      1.0495                 1.0460                 1.0464
 Frc consts  --      1.3011                 1.3018                 1.3049
 IR Inten    --      1.0600                12.8911                23.0171

                     58                     59                     60
                      A                      A                      A
 Frequencies --   1459.6091              1461.7625              1470.2216
 Red. masses --      1.0474                 1.0475                 1.0438
 Frc consts  --      1.3148                 1.3187                 1.3294
 IR Inten    --      7.3394                 6.3248                 4.2874

                     61                     62                     63
                      A                      A                      A
 Frequencies --   1472.5535              2059.7861              2098.6158
 Red. masses --      1.0433                 1.0115                 1.0128
 Frc consts  --      1.3330                 2.5285                 2.6280
 IR Inten    --     13.8632               523.6576               359.1362

                     64                     65                     66
                      A                      A                      A
 Frequencies --   3050.4184              3051.8427              3051.9929
 Red. masses --      1.0343                 1.0346                 1.0344
 Frc consts  --      5.6705                 5.6773                 5.6771
 IR Inten    --      2.8168                20.9954                10.7299

                     67                     68                     69
                      A                      A                      A
 Frequencies --   3052.6935              3054.7664              3055.3818
 Red. masses --      1.0347                 1.0352                 1.0355
 Frc consts  --      5.6810                 5.6914                 5.6955
 IR Inten    --     14.5066                 9.3487                24.9041

                     70                     71                     72
                      A                      A                      A
 Frequencies --   3136.1089              3141.4241              3141.5756
 Red. masses --      1.1021                 1.1022                 1.1019
 Frc consts  --      6.3862                 6.4088                 6.4077
 IR Inten    --     20.0380                14.3543                 0.4676

                     73                     74                     75
                      A                      A                      A
 Frequencies --   3141.7461              3142.6457              3144.2473
 Red. masses --      1.1021                 1.1020                 1.1019
 Frc consts  --      6.4093                 6.4124                 6.4184
 IR Inten    --      2.1341                19.8785                24.0449

                     76                     77                     78
                      A                      A                      A
 Frequencies --   3150.2456              3154.8128              3155.8757
 Red. masses --      1.1021                 1.1020                 1.1020
 Frc consts  --      6.4442                 6.4620                 6.4667
 IR Inten    --      4.1031                 2.0697                 1.9648

                     79                     80                     81
                      A                      A                      A
 Frequencies --   3157.7522              3159.0319              3163.2492
 Red. masses --      1.1020                 1.1002                 1.1005
 Frc consts  --      6.4740                 6.4687                 6.4879
 IR Inten    --      2.1927                 3.6392                 2.0402

 - Thermochemistry -
 -------------------
 Temperature   298.150 Kelvin.  Pressure   1.00000 Atm.
 Atom     1 has atomic number 78 and mass 194.96480

 Molecular mass:   349.06883 amu.
 Principal axes and moments of inertia in atomic units:
                           1         2         3
     Eigenvalues --  1785.595653346.989504144.81202
           X            1.00000   0.00051   0.00004
           Y           -0.00051   1.00000  -0.00226
           Z           -0.00004   0.00226   1.00000
 This molecule is an asymmetric top.
 Rotational symmetry number  1.
 Warning -- assumption of classical behavior for rotation
           may cause significant error
 Rotational temperatures (Kelvin)      0.04851     0.02588     0.02090
 Rotational constants (GHZ):           1.01072     0.53921     0.43542
 Zero-point vibrational energy     644966.5 (Joules/Mol)
                                  154.15068 (Kcal/Mol)
 Warning -- explicit consideration of  24 degrees of freedom as
           vibrations may cause significant error
 Vibrational temperatures:     53.98    89.67   142.79   193.34   206.54
          (Kelvin)            228.72   268.20   273.31   291.23   303.24
                              306.11   321.31   332.33   358.80   375.28
                              379.15   388.21   414.53   422.77   508.32
                              531.30   801.09   835.37   872.93   991.52
                             1003.23  1071.66  1076.13  1078.00  1081.38
                             1133.99  1139.77  1193.63  1234.83  1236.95
                             1244.12  1251.90  1374.84  1377.44  1379.70
                             1385.56  1386.42  1406.52  1880.56  1888.93
                             1891.09  1893.36  1916.86  1921.59  2068.16
                             2071.81  2081.29  2082.75  2085.52  2087.01
                             2091.09  2093.18  2100.05  2103.15  2115.32
                             2118.68  2963.57  3019.44  4388.87  4390.92
                             4391.14  4392.15  4395.13  4396.01  4512.16
                             4519.81  4520.03  4520.27  4521.57  4523.87
                             4532.50  4539.07  4540.60  4543.30  4545.14
                             4551.21

 Zero-point correction=                           0.245655 (Hartree/Particle)
 Thermal correction to Energy=                    0.262127
 Thermal correction to Enthalpy=                  0.263071
 Thermal correction to Gibbs Free Energy=         0.202226
 Sum of electronic and zero-point Energies=          -1042.188407
 Sum of electronic and thermal Energies=             -1042.171935
 Sum of electronic and thermal Enthalpies=           -1042.170991
 Sum of electronic and thermal Free Energies=        -1042.231837

                     E (Thermal)             CV                S
                      KCal/Mol        Cal/Mol-Kelvin    Cal/Mol-Kelvin
 Total                  164.487             60.276            128.061
 Electronic               0.000              0.000              0.000
 Translational            0.889              2.981             43.444
 Rotational               0.889              2.981             31.583
 Vibrational            162.710             54.314             53.034
 Vibration     1          0.594              1.982              5.386
 Vibration     2          0.597              1.972              4.382
 Vibration     3          0.604              1.950              3.469
 Vibration     4          0.613              1.919              2.882
 Vibration     5          0.616              1.910              2.756
 Vibration     6          0.621              1.893              2.562
 Vibration     7          0.632              1.858              2.263
 Vibration     8          0.633              1.854              2.228
 Vibration     9          0.639              1.836              2.111
 Vibration    10          0.643              1.824              2.037
 Vibration    11          0.644              1.821              2.020
 Vibration    12          0.649              1.806              1.932
 Vibration    13          0.653              1.794              1.871
 Vibration    14          0.662              1.764              1.735
 Vibration    15          0.669              1.744              1.656
 Vibration    16          0.670              1.740              1.638
 Vibration    17          0.674              1.729              1.597
 Vibration    18          0.685              1.696              1.485
 Vibration    19          0.689              1.685              1.452
 Vibration    20          0.729              1.568              1.151
 Vibration    21          0.742              1.535              1.083
 Vibration    22          0.912              1.125              0.530
 Vibration    23          0.937              1.073              0.484
 Vibration    24          0.965              1.018              0.438

 Optimization completed.
    -- Stationary point found.

 1\1\GINC-C24N07\Freq\RPBE1PBE\def2TZVP\C6H20P2Pt1\ROOT\09-Nov-2019\0\\
 #P Geom=AllCheck Guess=TCheck SCRF=Check GenChk RPBE1PBE/def2TZVP Freq
 \\Title Card Required\\0,1\Pt,0.0064480756,-0.725733046,0.2189213402\P
 ,1.7975055139,0.6765535976,-0.0417763662\P,-1.7776773369,0.7010254692,
 0.0436566476\C,1.9484923983,1.9961253603,1.2043023874\H,1.988389767,1.
 5436212,2.197300689\H,2.8485244417,2.596831867,1.0474865753\H,1.073413
 6966,2.6475997879,1.1654887368\C,3.4285461942,-0.1186189751,0.05615005
 44\H,3.4998803017,-0.8765357843,-0.7263807539\H,4.2422422993,0.6027928

 Normal termination of Gaussian 16 at Sat Nov  9 03:27:19 2019.
