 Gaussian 16, Revision A.03,
 Gaussian 16:  ES64L-G16RevA.03 25-Dec-2016

 ----------------------------------------------------------------------
 #p opt=(ts,calcfc,noeigen) pbe1pbe/def2tzvp em=gd3bj geom=allcheck scr
 f=(smd,solvent=benzene)
 ----------------------------------------------------------------------

 Structure from the checkpoint file:  "Pt_tsb.chk"
 -------------------
 Title Card Required
 -------------------
 Charge =  0 Multiplicity = 1

 SCF Done:  E(RPBE1PBE) =  -1042.39525241     A.U. after   12 cycles

  Exact polarizability:   0.000   0.000   0.000   0.000   0.000   0.000
 Approx polarizability: 287.509   0.003 239.631  -0.049   0.009 233.469

 SCF Done:  E(RPBE1PBE) =  -1042.39529096     A.U. after    9 cycles
 SCF Done:  E(RPBE1PBE) =  -1042.39529120     A.U. after    8 cycles
 SCF Done:  E(RPBE1PBE) =  -1042.39529116     A.U. after    7 cycles
 Optimization completed on the basis of negligible forces.
    -- Stationary point found.

                         Standard orientation:
 ---------------------------------------------------------------------
 Center     Atomic      Atomic             Coordinates (Angstroms)
 Number     Number       Type             X           Y           Z
 ---------------------------------------------------------------------
      1         78           0       -0.000009   -0.378523   -0.000028
      2         15           0        2.160472    0.227398   -0.000412
      3         15           0       -2.160448    0.227397    0.000397
      4          6           0        2.681652    1.178556    1.464941
      5          1           0        2.546778    0.567514    2.359662
      6          1           0        3.729375    1.485748    1.393041
      7          1           0        2.048638    2.062211    1.561912
      8          6           0        3.487132   -1.028139   -0.094977
      9          1           0        3.363715   -1.611583   -1.010271
     10          1           0        4.484968   -0.579114   -0.088521
     11          1           0        3.396347   -1.710312    0.753477
     12          6           0        2.635706    1.340427   -1.363956
     13          1           0        2.002444    2.228794   -1.337443
     14          1           0        3.686402    1.637772   -1.293366
     15          1           0        2.468242    0.835623   -2.317505
     16          6           0       -2.636142    1.338581    1.365292
     17          1           0       -2.002852    2.226972    1.340210
     18          1           0       -3.686805    1.636049    1.294742
     19          1           0       -2.469021    0.832479    2.318214
     20          6           0       -3.487161   -1.028259    0.092780
     21          1           0       -4.484993   -0.579221    0.086575
     22          1           0       -3.396078   -1.709288   -0.756562
     23          1           0       -3.364068   -1.612941    1.007327
     24          6           0       -2.681135    1.180565   -1.463819
     25          1           0       -2.545757    0.570849   -2.359366
     26          1           0       -3.728943    1.487476   -1.391938
     27          1           0       -2.048226    2.064466   -1.559225
     28          1           0       -0.388717   -2.510183    0.004174
     29          1           0        0.388556   -2.510807   -0.004259
 ---------------------------------------------------------------------

 The electronic state is 1-A.
 Alpha  occ. eigenvalues --  -77.21199 -77.21199 -10.20809 -10.20809 -10.20788
 Alpha  occ. eigenvalues --  -10.20788 -10.20783 -10.20783  -6.60495  -6.60495
 Alpha  occ. eigenvalues --   -4.74103  -4.74103  -4.74096  -4.74096  -4.73773
 Alpha  occ. eigenvalues --   -4.73773  -3.88181  -2.13279  -2.11142  -2.10609
 Alpha  occ. eigenvalues --   -0.78616  -0.78442  -0.70620  -0.70613  -0.70568
 Alpha  occ. eigenvalues --   -0.70566  -0.55925  -0.54575  -0.46084  -0.44845
 Alpha  occ. eigenvalues --   -0.44660  -0.43539  -0.43518  -0.43492  -0.43459
 Alpha  occ. eigenvalues --   -0.40831  -0.40819  -0.40792  -0.40704  -0.39065
 Alpha  occ. eigenvalues --   -0.39040  -0.35619  -0.34291  -0.34114  -0.33967
 Alpha  occ. eigenvalues --   -0.33696  -0.28489  -0.23423  -0.21020  -0.20693
 Alpha  occ. eigenvalues --   -0.20415  -0.18422
 Alpha virt. eigenvalues --   -0.00280   0.03598   0.04140   0.04958   0.07352
 Alpha virt. eigenvalues --    0.07719   0.09096   0.09413   0.09527   0.09551
 Alpha virt. eigenvalues --    0.10004   0.10502   0.10762   0.11427   0.11473

 Mulliken charges:
               1
     1  Pt  -0.330348
     2  P    0.141879
     3  P    0.141894
     4  C   -0.432594
     5  H    0.152319
     6  H    0.134744
     7  H    0.153810
     8  C   -0.442836
     9  H    0.150210
    10  H    0.134435
    11  H    0.149502
    12  C   -0.430836
    13  H    0.153064
    14  H    0.134449
    15  H    0.152291
    16  C   -0.430866
    17  H    0.153069
    18  H    0.134452
    19  H    0.152294
    20  C   -0.442840
    21  H    0.134434
    22  H    0.149510
    23  H    0.150200
    24  C   -0.432572
    25  H    0.152320
    26  H    0.134739
    27  H    0.153802
    28  H    0.014717
    29  H    0.014759
 Sum of Mulliken charges =  -0.00000

 Dipole moment (field-independent basis, Debye):
    X=              0.0003    Y=              1.0502    Z=              0.0003  Tot=              1.0502
 Quadrupole moment (field-independent basis, Debye-Ang):
   XX=            -77.5579   YY=            -91.7820   ZZ=            -92.2735
   XY=             -0.0003   XZ=              0.0373   YZ=             -0.0003

 Normal termination of Gaussian 16 at Sat Nov  9 02:06:18 2019.
