 Gaussian 16, Revision A.03,
 Gaussian 16:  ES64L-G16RevA.03 25-Dec-2016

 ----------------------------------------------------------------------
 #p opt=(ts,calcall,noeigen) pbe1pbe/def2tzvp em=gd3bj geom=allcheck sc
 rf=(smd,solvent=benzene)
 ----------------------------------------------------------------------

 Structure from the checkpoint file:  "Pt_tsb.chk"
 -------------------
 Title Card Required
 -------------------
 Charge =  0 Multiplicity = 1

 SCF Done:  E(RPBE1PBE) =  -1042.39529116     A.U. after   12 cycles

 The electronic state is 1-A.
 Alpha  occ. eigenvalues --  -77.21199 -77.21199 -10.20809 -10.20809 -10.20788
 Alpha  occ. eigenvalues --  -10.20788 -10.20783 -10.20783  -6.60495  -6.60495
 Alpha  occ. eigenvalues --   -4.74103  -4.74103  -4.74096  -4.74096  -4.73773
 Alpha  occ. eigenvalues --   -4.73773  -3.88181  -2.13279  -2.11142  -2.10609
 Alpha  occ. eigenvalues --   -0.78616  -0.78442  -0.70620  -0.70613  -0.70568
 Alpha  occ. eigenvalues --   -0.70566  -0.55925  -0.54575  -0.46084  -0.44845
 Alpha  occ. eigenvalues --   -0.44660  -0.43539  -0.43518  -0.43492  -0.43459
 Alpha  occ. eigenvalues --   -0.40831  -0.40819  -0.40792  -0.40704  -0.39065
 Alpha  occ. eigenvalues --   -0.39040  -0.35619  -0.34291  -0.34114  -0.33967
 Alpha  occ. eigenvalues --   -0.33696  -0.28489  -0.23423  -0.21020  -0.20693
 Alpha  occ. eigenvalues --   -0.20415  -0.18422
 Alpha virt. eigenvalues --   -0.00280   0.03598   0.04140   0.04958   0.07352
 Alpha virt. eigenvalues --    0.07719   0.09096   0.09413   0.09527   0.09551
 Alpha virt. eigenvalues --    0.10004   0.10502   0.10762   0.11427   0.11473

 Mulliken charges:
               1
     1  Pt  -0.330349
     2  P    0.141878
     3  P    0.141894
     4  C   -0.432594
     5  H    0.152319
     6  H    0.134744
     7  H    0.153810
     8  C   -0.442836
     9  H    0.150210
    10  H    0.134435
    11  H    0.149502
    12  C   -0.430835
    13  H    0.153064
    14  H    0.134449
    15  H    0.152291
    16  C   -0.430867
    17  H    0.153069
    18  H    0.134452
    19  H    0.152294
    20  C   -0.442841
    21  H    0.134434
    22  H    0.149510
    23  H    0.150200
    24  C   -0.432571
    25  H    0.152320
    26  H    0.134739
    27  H    0.153802
    28  H    0.014717
    29  H    0.014759
 Sum of Mulliken charges =  -0.00000

 Dipole moment (field-independent basis, Debye):
    X=              0.0003    Y=              1.0502    Z=              0.0003  Tot=              1.0502
 Quadrupole moment (field-independent basis, Debye-Ang):
   XX=            -77.5579   YY=            -91.7820   ZZ=            -92.2735
   XY=             -0.0003   XZ=              0.0373   YZ=             -0.0003

  Exact polarizability: 260.521  -0.003 186.161  -0.049  -0.001 174.762
 Approx polarizability: 287.246  -0.006 239.397  -0.023  -0.001 233.389

 Optimization completed on the basis of negligible forces.
    -- Stationary point found.

                         Standard orientation:
 ---------------------------------------------------------------------
 Center     Atomic      Atomic             Coordinates (Angstroms)
 Number     Number       Type             X           Y           Z
 ---------------------------------------------------------------------
      1         78           0       -0.000009   -0.378523   -0.000028
      2         15           0        2.160472    0.227398   -0.000412
      3         15           0       -2.160448    0.227397    0.000397
      4          6           0        2.681652    1.178556    1.464941
      5          1           0        2.546778    0.567514    2.359662
      6          1           0        3.729375    1.485748    1.393041
      7          1           0        2.048638    2.062211    1.561912
      8          6           0        3.487132   -1.028139   -0.094977
      9          1           0        3.363715   -1.611583   -1.010271
     10          1           0        4.484968   -0.579114   -0.088521
     11          1           0        3.396347   -1.710312    0.753477
     12          6           0        2.635706    1.340427   -1.363956
     13          1           0        2.002444    2.228794   -1.337443
     14          1           0        3.686402    1.637772   -1.293366
     15          1           0        2.468242    0.835623   -2.317505
     16          6           0       -2.636142    1.338581    1.365292
     17          1           0       -2.002852    2.226972    1.340210
     18          1           0       -3.686805    1.636049    1.294742
     19          1           0       -2.469021    0.832479    2.318214
     20          6           0       -3.487161   -1.028259    0.092780
     21          1           0       -4.484993   -0.579221    0.086575
     22          1           0       -3.396078   -1.709288   -0.756562
     23          1           0       -3.364068   -1.612941    1.007327
     24          6           0       -2.681135    1.180565   -1.463819
     25          1           0       -2.545757    0.570849   -2.359366
     26          1           0       -3.728943    1.487476   -1.391938
     27          1           0       -2.048226    2.064466   -1.559225
     28          1           0       -0.388717   -2.510183    0.004174
     29          1           0        0.388556   -2.510807   -0.004259
 ---------------------------------------------------------------------

 ******    1 imaginary frequencies (negative Signs) ******

                      1                      2                      3
                      A                      A                      A
 Frequencies --   -214.0855                12.0594                26.1489
 Red. masses --      1.5319                 2.8273                 3.4768
 Frc consts  --      0.0414                 0.0002                 0.0014
 IR Inten    --      9.4769                 0.0065                 0.6480

                      4                      5                      6
                      A                      A                      A
 Frequencies --     55.8677                86.4929               108.6986
 Red. masses --      3.1014                 1.2516                 1.2888
 Frc consts  --      0.0057                 0.0055                 0.0090
 IR Inten    --      3.0892                18.5391                 3.8009

                      7                      8                      9
                      A                      A                      A
 Frequencies --    137.6443               138.5579               182.4047
 Red. masses --      2.1717                 2.8915                 1.1528
 Frc consts  --      0.0242                 0.0327                 0.0226
 IR Inten    --      1.3863                 0.0006                 4.9699

                     10                     11                     12
                      A                      A                      A
 Frequencies --    183.4058               183.6342               196.4750
 Red. masses --      1.0374                 1.3430                 2.7643
 Frc consts  --      0.0206                 0.0267                 0.0629
 IR Inten    --      0.1881                12.3500                 0.0635

                     13                     14                     15
                      A                      A                      A
 Frequencies --    202.0369               223.0119               224.6007
 Red. masses --      1.9556                 1.3848                 1.0615
 Frc consts  --      0.0470                 0.0406                 0.0315
 IR Inten    --      2.0749                 1.2853                 0.0219

                     16                     17                     18
                      A                      A                      A
 Frequencies --    227.6753               235.5120               236.2385
 Red. masses --      1.4907                 1.0722                 1.3070
 Frc consts  --      0.0455                 0.0350                 0.0430
 IR Inten    --      1.0347                 0.0050                 4.7832

                     19                     20                     21
                      A                      A                      A
 Frequencies --    239.3868               259.3939               259.7581
 Red. masses --      1.4070                 2.3763                 2.2942
 Frc consts  --      0.0475                 0.0942                 0.0912
 IR Inten    --      7.6344                 2.7801                 0.0015

                     22                     23                     24
                      A                      A                      A
 Frequencies --    270.2579               299.2676               309.8973
 Red. masses --      2.5355                 2.1881                 1.0160
 Frc consts  --      0.1091                 0.1155                 0.0575
 IR Inten    --      2.0191                10.4814                 0.0152

                     25                     26                     27
                      A                      A                      A
 Frequencies --    364.7866               384.1883               683.1114
 Red. masses --      2.9476                 3.6312                 4.0576
 Frc consts  --      0.2311                 0.3158                 1.1156
 IR Inten    --     78.4526                 8.0831               110.5380

                     28                     29                     30
                      A                      A                      A
 Frequencies --    694.1981               731.8268               732.6622
 Red. masses --      3.9531                 3.8126                 3.6791
 Frc consts  --      1.1224                 1.2030                 1.1636
 IR Inten    --      1.4304                 8.1078                33.1310

                     31                     32                     33
                      A                      A                      A
 Frequencies --    742.5869               743.0655               788.1194
 Red. masses --      3.8099                 3.7166                 1.1658
 Frc consts  --      1.2378                 1.2091                 0.4267
 IR Inten    --      0.0493                29.7963                 0.0050

                     34                     35                     36
                      A                      A                      A
 Frequencies --    788.1585               846.9973               848.6209
 Red. masses --      1.1657                 1.2566                 1.2524
 Frc consts  --      0.4266                 0.5311                 0.5314
 IR Inten    --      0.0459                 1.1017                 0.0286

                     37                     38                     39
                      A                      A                      A
 Frequencies --    852.9415               860.1757               947.9014
 Red. masses --      1.2678                 1.2868                 1.4487
 Frc consts  --      0.5434                 0.5610                 0.7669
 IR Inten    --      6.7169                12.5241               531.9811

                     40                     41                     42
                      A                      A                      A
 Frequencies --    956.9169               956.9656               957.9979
 Red. masses --      1.3970                 1.3989                 1.3974
 Frc consts  --      0.7537                 0.7548                 0.7556
 IR Inten    --     10.2681                18.3882                22.6499

                     43                     44                     45
                      A                      A                      A
 Frequencies --    958.3483               970.8239              1306.4310
 Red. masses --      1.4038                 1.5224                 1.2310
 Frc consts  --      0.7596                 0.8454                 1.2379
 IR Inten    --     54.1877                43.3764                 6.2404

                     46                     47                     48
                      A                      A                      A
 Frequencies --   1306.5022              1306.9031              1307.2267
 Red. masses --      1.2318                 1.2308                 1.2318
 Frc consts  --      1.2388                 1.2386                 1.2402
 IR Inten    --      3.5704                38.0930                40.3898

                     49                     50                     51
                      A                      A                      A
 Frequencies --   1326.4428              1327.3179              1436.4813
 Red. masses --      1.2166                 1.2158                 1.0527
 Frc consts  --      1.2612                 1.2620                 1.2799
 IR Inten    --      9.9952                 1.5849                 0.0022

                     52                     53                     54
                      A                      A                      A
 Frequencies --   1436.8723              1446.2962              1447.0380
 Red. masses --      1.0528                 1.0479                 1.0477
 Frc consts  --      1.2806                 1.2914                 1.2926
 IR Inten    --      0.4285                 0.0612                 0.4020

                     55                     56                     57
                      A                      A                      A
 Frequencies --   1447.7582              1449.3413              1451.7777
 Red. masses --      1.0479                 1.0471                 1.0486
 Frc consts  --      1.2941                 1.2959                 1.3021
 IR Inten    --      0.3111                 0.1684                 3.2047

                     58                     59                     60
                      A                      A                      A
 Frequencies --   1452.6728              1454.1991              1455.1580
 Red. masses --      1.0483                 1.0475                 1.0479
 Frc consts  --      1.3034                 1.3052                 1.3074
 IR Inten    --     34.4629                 0.3305                30.1547

                     61                     62                     63
                      A                      A                      A
 Frequencies --   1468.1514              1469.6954              3041.6912
 Red. masses --      1.0433                 1.0426                 1.0348
 Frc consts  --      1.3250                 1.3269                 5.6406
 IR Inten    --      7.6954                 0.9320                52.2493

                     64                     65                     66
                      A                      A                      A
 Frequencies --   3041.9608              3045.2752              3045.6174
 Red. masses --      1.0347                 1.0358                 1.0357
 Frc consts  --      5.6410                 5.6596                 5.6603
 IR Inten    --      3.9480                63.8620                16.8931

                     67                     68                     69
                      A                      A                      A
 Frequencies --   3045.8710              3045.9076              3130.3644
 Red. masses --      1.0358                 1.0359                 1.1020
 Frc consts  --      5.6619                 5.6627                 6.3624
 IR Inten    --      2.6108                17.0760                29.1762

                     70                     71                     72
                      A                      A                      A
 Frequencies --   3130.3997              3135.8067              3135.8397
 Red. masses --      1.1018                 1.1008                 1.1008
 Frc consts  --      6.3613                 6.3776                 6.3778
 IR Inten    --      3.3998                 0.0072                 0.1317

                     73                     74                     75
                      A                      A                      A
 Frequencies --   3136.3277              3136.7252              3144.1598
 Red. masses --      1.1001                 1.1000                 1.1020
 Frc consts  --      6.3756                 6.3765                 6.4189
 IR Inten    --     74.9245                 8.1009                 0.0988

                     76                     77                     78
                      A                      A                      A
 Frequencies --   3144.1867              3153.9651              3153.9855
 Red. masses --      1.1020                 1.1020                 1.1021
 Frc consts  --      6.4189                 6.4589                 6.4591
 IR Inten    --      9.4040                 3.4819                 3.2604

                     79                     80                     81
                      A                      A                      A
 Frequencies --   3154.4574              3154.5047              3860.4069
 Red. masses --      1.1021                 1.1021                 1.0079
 Frc consts  --      6.4613                 6.4615                 8.8496
 IR Inten    --      3.2560                 3.6850                32.3881

 - Thermochemistry -
 -------------------
 Temperature   298.150 Kelvin.  Pressure   1.00000 Atm.
 Atom     1 has atomic number 78 and mass 194.96480

 Molecular mass:   349.06883 amu.
 Principal axes and moments of inertia in atomic units:
                           1         2         3
     Eigenvalues --  1158.359264435.155924611.88440
           X            1.00000  -0.00000   0.00000
           Y            0.00000   1.00000  -0.00001
           Z           -0.00000   0.00001   1.00000
 This molecule is an asymmetric top.
 Rotational symmetry number  1.
 Warning -- assumption of classical behavior for rotation
           may cause significant error
 Rotational temperatures (Kelvin)      0.07477     0.01953     0.01878
 Rotational constants (GHZ):           1.55802     0.40692     0.39132
    1 imaginary frequencies ignored.
 Zero-point vibrational energy     629490.2 (Joules/Mol)
                                  150.45176 (Kcal/Mol)
 Warning -- explicit consideration of  25 degrees of freedom as
           vibrations may cause significant error
 Vibrational temperatures:     17.35    37.62    80.38   124.44   156.39
          (Kelvin)            198.04   199.35   262.44   263.88   264.21
                              282.68   290.69   320.86   323.15   327.57
                              338.85   339.89   344.42   373.21   373.73
                              388.84   430.58   445.87   524.85   552.76
                              982.84   998.80  1052.94  1054.14  1068.42
                             1069.11  1133.93  1133.98  1218.64  1220.98
                             1227.19  1237.60  1363.82  1376.79  1376.86
                             1378.35  1378.85  1396.80  1879.66  1879.77
                             1880.34  1880.81  1908.46  1909.71  2066.78
                             2067.34  2080.90  2081.96  2083.00  2085.28
                             2088.78  2090.07  2092.27  2093.65  2112.34
                             2114.56  4376.32  4376.70  4381.47  4381.96
                             4382.33  4382.38  4503.90  4503.95  4511.73
                             4511.77  4512.48  4513.05  4523.74  4523.78
                             4537.85  4537.88  4538.56  4538.63  5554.26

 Zero-point correction=                           0.239760 (Hartree/Particle)
 Thermal correction to Energy=                    0.258345
 Thermal correction to Enthalpy=                  0.259289
 Thermal correction to Gibbs Free Energy=         0.191801
 Sum of electronic and zero-point Energies=          -1042.155531
 Sum of electronic and thermal Energies=             -1042.136946
 Sum of electronic and thermal Enthalpies=           -1042.136002
 Sum of electronic and thermal Free Energies=        -1042.203491

                     E (Thermal)             CV                S
                      KCal/Mol        Cal/Mol-Kelvin    Cal/Mol-Kelvin
 Total                  162.114             64.094            142.042
 Electronic               0.000              0.000              0.000
 Translational            0.889              2.981             43.444
 Rotational               0.889              2.981             31.539
 Vibrational            160.337             58.132             67.059
 Vibration     1          0.593              1.987              7.639
 Vibration     2          0.593              1.985              6.102
 Vibration     3          0.596              1.975              4.598
 Vibration     4          0.601              1.959              3.738
 Vibration     5          0.606              1.942              3.292
 Vibration     6          0.614              1.916              2.836
 Vibration     7          0.614              1.915              2.824
 Vibration     8          0.630              1.864              2.304
 Vibration     9          0.631              1.862              2.293
 Vibration    10          0.631              1.862              2.291
 Vibration    11          0.636              1.845              2.166
 Vibration    12          0.639              1.837              2.114
 Vibration    13          0.649              1.806              1.935
 Vibration    14          0.649              1.804              1.922
 Vibration    15          0.651              1.799              1.897
 Vibration    16          0.655              1.786              1.837
 Vibration    17          0.655              1.785              1.831
 Vibration    18          0.657              1.780              1.807
 Vibration    19          0.668              1.747              1.666
 Vibration    20          0.668              1.746              1.663
 Vibration    21          0.674              1.728              1.595
 Vibration    22          0.692              1.675              1.421
 Vibration    23          0.699              1.655              1.363
 Vibration    24          0.738              1.545              1.102
 Vibration    25          0.753              1.504              1.023

 1\1\GINC-C36N13\Freq\RPBE1PBE\def2TZVP\C6H20P2Pt1\ROOT\09-Nov-2019\0\\
 #p opt=(ts,calcall,noeigen) pbe1pbe/def2tzvp em=gd3bj geom=allcheck sc
 rf=(smd,solvent=benzene)\\Title Card Required\\0,1\Pt,-0.000087484,-0.
 3736730556,0.0156970064\P,2.1602409009,0.2325337268,-0.0019436654\P,-2
 .1606660526,0.2317099682,0.0086200397\C,2.6844933,1.2135326036,1.44249
 07414\H,2.5517819794,0.6208721659,2.3498107733\H,3.7319777265,1.519395
 2442,1.3619641783\H,2.0514869572,2.098862228,1.5228167917\C,3.48698643
 95,-1.0244162697,-0.0738320726\H,3.3616477818,-1.6264624599,-0.9767337

 Normal termination of Gaussian 16 at Sat Nov  9 02:34:45 2019.
