 Gaussian 16, Revision A.03,
 Gaussian 16:  ES64L-G16RevA.03 25-Dec-2016

 ---------------------------------------------------------
 #p dsdpbep86/genecp geom=check scrf=(smd,solvent=benzene)
 ---------------------------------------------------------

 -----
 title
 -----
 Structure from the checkpoint file:  "Pt_tsb_sp.chk"
 Charge =  0 Multiplicity = 1

                         Standard orientation:
 ---------------------------------------------------------------------
 Center     Atomic      Atomic             Coordinates (Angstroms)
 Number     Number       Type             X           Y           Z
 ---------------------------------------------------------------------
      1         78           0       -0.000009   -0.378523   -0.000028
      2         15           0        2.160472    0.227398   -0.000412
      3         15           0       -2.160448    0.227397    0.000397
      4          6           0        2.681652    1.178556    1.464941
      5          1           0        2.546778    0.567514    2.359662
      6          1           0        3.729375    1.485748    1.393041
      7          1           0        2.048638    2.062211    1.561912
      8          6           0        3.487132   -1.028139   -0.094977
      9          1           0        3.363715   -1.611583   -1.010271
     10          1           0        4.484968   -0.579114   -0.088521
     11          1           0        3.396347   -1.710312    0.753477
     12          6           0        2.635706    1.340427   -1.363956
     13          1           0        2.002444    2.228794   -1.337443
     14          1           0        3.686402    1.637772   -1.293366
     15          1           0        2.468242    0.835623   -2.317505
     16          6           0       -2.636142    1.338581    1.365292
     17          1           0       -2.002852    2.226972    1.340210
     18          1           0       -3.686805    1.636049    1.294742
     19          1           0       -2.469021    0.832479    2.318214
     20          6           0       -3.487161   -1.028259    0.092780
     21          1           0       -4.484993   -0.579221    0.086575
     22          1           0       -3.396078   -1.709288   -0.756562
     23          1           0       -3.364068   -1.612941    1.007327
     24          6           0       -2.681135    1.180565   -1.463819
     25          1           0       -2.545757    0.570849   -2.359366
     26          1           0       -3.728943    1.487476   -1.391938
     27          1           0       -2.048226    2.064466   -1.559225
     28          1           0       -0.388717   -2.510183    0.004174
     29          1           0        0.388556   -2.510807   -0.004259
 ---------------------------------------------------------------------

 SCF Done:  E(RDSDPBEP86) =  -1040.59553430     A.U. after   13 cycles
 E2(DSDPBEP86) =    -0.1047828837D+01 E(DSDPBEP86) =    -0.10416433631417D+04

 The electronic state is 1-A.
 Alpha  occ. eigenvalues --  -78.82180 -78.82180 -10.79784 -10.79783 -10.79783
 Alpha  occ. eigenvalues --  -10.79782 -10.79762 -10.79761  -7.12119  -7.12119
 Alpha  occ. eigenvalues --   -5.11551  -5.11550  -5.11543  -5.11543  -5.11355
 Alpha  occ. eigenvalues --   -5.11355  -4.16860  -2.33510  -2.31948  -2.31558
 Alpha  occ. eigenvalues --   -0.92730  -0.92554  -0.83980  -0.83974  -0.83935
 Alpha  occ. eigenvalues --   -0.83933  -0.66139  -0.64662  -0.54950  -0.53575
 Alpha  occ. eigenvalues --   -0.53469  -0.52042  -0.52020  -0.51988  -0.51950
 Alpha  occ. eigenvalues --   -0.49142  -0.49141  -0.49116  -0.49027  -0.47315
 Alpha  occ. eigenvalues --   -0.47287  -0.42457  -0.41460  -0.41268  -0.41023
 Alpha  occ. eigenvalues --   -0.40712  -0.34663  -0.29605  -0.28150  -0.27133
 Alpha  occ. eigenvalues --   -0.25598  -0.23044
 Alpha virt. eigenvalues --    0.04297   0.08416   0.08761   0.08940   0.12795
 Alpha virt. eigenvalues --    0.13147   0.13175   0.14014   0.15233   0.15379
 Alpha virt. eigenvalues --    0.15874   0.15968   0.16547   0.17492   0.17593

 Mulliken charges:
               1
     1  Pt  -0.356380
     2  P    0.240388
     3  P    0.240417
     4  C   -0.438711
     5  H    0.143929
     6  H    0.128821
     7  H    0.147676
     8  C   -0.451850
     9  H    0.142549
    10  H    0.128070
    11  H    0.141790
    12  C   -0.437833
    13  H    0.147368
    14  H    0.128592
    15  H    0.144173
    16  C   -0.437857
    17  H    0.147370
    18  H    0.128595
    19  H    0.144171
    20  C   -0.451854
    21  H    0.128068
    22  H    0.141799
    23  H    0.142538
    24  C   -0.438698
    25  H    0.143933
    26  H    0.128817
    27  H    0.147670
    28  H    0.013207
    29  H    0.013242
 Sum of Mulliken charges =  -0.00000

 Dipole moment (field-independent basis, Debye):
    X=              0.0003    Y=              0.9074    Z=              0.0003  Tot=              0.9074
 Quadrupole moment (field-independent basis, Debye-Ang):
   XX=            -79.0821   YY=            -92.7046   ZZ=            -93.0320
   XY=             -0.0003   XZ=              0.0376   YZ=             -0.0002

 Normal termination of Gaussian 16 at Sat Nov  9 16:56:36 2019.
