 Gaussian 16, Revision A.03,
 Gaussian 16:  ES64L-G16RevA.03 25-Dec-2016

 ----------------------------------------------
 #p b3lyp/6-31+g** opt=(ts,noeigen,calcfc) freq
 ----------------------------------------------

 -------------------
 Title Card Required
 -------------------
 Symbolic Z-matrix:
 Charge = -1 Multiplicity = 1

 SCF Done:  E(RB3LYP) =  -3071.91852895     A.U. after   12 cycles
 SCF Done:  E(RB3LYP) =  -3071.92127834     A.U. after   12 cycles
 SCF Done:  E(RB3LYP) =  -3071.92133741     A.U. after   10 cycles
 SCF Done:  E(RB3LYP) =  -3071.92135072     A.U. after    8 cycles
 Optimization completed.
    -- Stationary point found.
 Normal termination of Gaussian 16 at Fri Oct 11 19:30:19 2019.

 ----------------------------------------------------------------------
 #P Geom=AllCheck Guess=TCheck SCRF=Check GenChk RB3LYP/6-31+G(d,p) Fre
 q
 ----------------------------------------------------------------------

 Structure from the checkpoint file:  "ts.chk"
 -------------------
 Title Card Required
 -------------------
 Charge = -1 Multiplicity = 1

                         Standard orientation:
 ---------------------------------------------------------------------
 Center     Atomic      Atomic             Coordinates (Angstroms)
 Number     Number       Type             X           Y           Z
 ---------------------------------------------------------------------
      1          6           0        0.764058   -0.000039   -0.000001
      2          1           0        0.762492    0.537551   -0.929490
      3          1           0        0.762495    0.536291    0.930215
      4          1           0        0.762480   -1.073792   -0.000728
      5         17           0        3.131527    0.000005    0.000000
      6         35           0       -1.717365    0.000003    0.000000
 ---------------------------------------------------------------------

 SCF Done:  E(RB3LYP) =  -3071.92135072     A.U. after    1 cycles

 The electronic state is 1-A.
 Alpha  occ. eigenvalues -- -482.70981-101.32250 -61.67062 -56.18734 -56.18566
 Alpha  occ. eigenvalues --  -56.18566 -10.10918  -9.23676  -8.37754  -6.99709
 Alpha  occ. eigenvalues --   -6.99308  -6.99308  -6.32524  -6.32028  -6.32028
 Alpha  occ. eigenvalues --   -2.44162  -2.44029  -2.44029  -2.43634  -2.43634
 Alpha  occ. eigenvalues --   -0.60265  -0.56166  -0.51801  -0.30753  -0.30751
 Alpha  occ. eigenvalues --   -0.17564  -0.11191  -0.11191  -0.10064  -0.10064
 Alpha  occ. eigenvalues --   -0.09356
 Alpha virt. eigenvalues --    0.09823   0.12867   0.16379   0.17242   0.17242
 Alpha virt. eigenvalues --    0.18422   0.20563   0.20563   0.22344   0.23963
 Alpha virt. eigenvalues --    0.23963   0.28880   0.32211   0.32214   0.33340

 Mulliken charges:
               1
     1  C   -0.412561
     2  H    0.216100
     3  H    0.216100
     4  H    0.216097
     5  Cl  -0.616692
     6  Br  -0.619044
 Sum of Mulliken charges =  -1.00000

 Dipole moment (field-independent basis, Debye):
    X=             -3.3607    Y=             -0.0000    Z=             -0.0000  Tot=              3.3607
 Quadrupole moment (field-independent basis, Debye-Ang):
   XX=            -86.8838   YY=            -44.0588   ZZ=            -44.0595
   XY=             -0.0000   XZ=              0.0000   YZ=              0.0000

  Exact polarizability: 150.310  -0.000  46.004   0.000   0.000  46.003
 Approx polarizability: 209.362   0.000  59.151   0.000  -0.000  59.150

 ******    1 imaginary frequencies (negative Signs) ******

                      1                      2                      3
                      A                      A                      A
 Frequencies --   -344.6372               171.9937               216.3764
 Red. masses --     12.8075                36.1873                 4.1686
 Frc consts  --      0.8963                 0.6307                 0.1150
 IR Inten    --   1162.4804                 6.3096                11.2089

                      4                      5                      6
                      A                      A                      A
 Frequencies --    216.3899               896.4580               896.4713
 Red. masses --      4.1688                 1.0110                 1.0110
 Frc consts  --      0.1150                 0.4787                 0.4787
 IR Inten    --     11.2086                 0.0169                 0.0169

                      7                      8                      9
                      A                      A                      A
 Frequencies --   1007.1217              1413.0346              1413.2231
 Red. masses --      1.0367                 1.1050                 1.1050
 Frc consts  --      0.6195                 1.2999                 1.3003
 IR Inten    --    159.9273                 4.3596                 4.3551

                     10                     11                     12
                      A                      A                      A
 Frequencies --   3213.4173              3414.6295              3414.7206
 Red. masses --      1.0078                 1.1234                 1.1234
 Frc consts  --      6.1316                 7.7174                 7.7179
 IR Inten    --      0.3144                 5.7085                 5.7170

 - Thermochemistry -
 -------------------
 Temperature   298.150 Kelvin.  Pressure   1.00000 Atm.
 Atom     1 has atomic number  6 and mass  12.00000

 Molecular mass:   128.91066 amu.
 Principal axes and moments of inertia in atomic units:
                           1         2         3
     Eigenvalues --    12.448432087.435442087.43668
           X            1.00000   0.00000   0.00000
           Y           -0.00000   1.00000  -0.00000
           Z           -0.00000   0.00000   1.00000
 This molecule is an asymmetric top.
 Rotational symmetry number  1.
 Rotational temperatures (Kelvin)      6.95782     0.04149     0.04149
 Rotational constants (GHZ):         144.97743     0.86457     0.86457
    1 imaginary frequencies ignored.
 Zero-point vibrational energy      97339.2 (Joules/Mol)
                                   23.26462 (Kcal/Mol)
 Warning -- explicit consideration of   3 degrees of freedom as
           vibrations may cause significant error
 Vibrational temperatures:    247.46   311.32   311.34  1289.80  1289.82
          (Kelvin)           1449.02  2033.04  2033.31  4623.39  4912.89
                             4913.02

 Zero-point correction=                           0.037075 (Hartree/Particle)
 Thermal correction to Energy=                    0.041743
 Thermal correction to Enthalpy=                  0.042688
 Thermal correction to Gibbs Free Energy=         0.008111
 Sum of electronic and zero-point Energies=          -3071.884276
 Sum of electronic and thermal Energies=             -3071.879607
 Sum of electronic and thermal Enthalpies=           -3071.878663
 Sum of electronic and thermal Free Energies=        -3071.913240

                     E (Thermal)             CV                S
                      KCal/Mol        Cal/Mol-Kelvin    Cal/Mol-Kelvin
 Total                   26.194             13.053             72.773
 Electronic               0.000              0.000              0.000
 Translational            0.889              2.981             40.475
 Rotational               0.889              2.981             25.498
 Vibrational             24.417              7.091              6.800
 Vibration     1          0.626              1.877              2.414
 Vibration     2          0.645              1.816              1.989
 Vibration     3          0.645              1.816              1.989

 Optimization completed.
    -- Stationary point found.
 Normal termination of Gaussian 16 at Fri Oct 11 19:30:26 2019.
