 Gaussian 16, Revision A.03,
 Gaussian 16:  ES64L-G16RevA.03 25-Dec-2016

 ------------------------------------------------------
 #p b3lyp/6-31+g* opt=(ts,noeigen,calcfc,recalc=3) freq
 ------------------------------------------------------

 -------------------
 Title Card Required
 -------------------
 Symbolic Z-matrix:
 Charge = -1 Multiplicity = 1

 SCF Done:  E(RB3LYP) =  -3071.91414948     A.U. after   12 cycles
 SCF Done:  E(RB3LYP) =  -3071.91684210     A.U. after   12 cycles
 SCF Done:  E(RB3LYP) =  -3071.91690129     A.U. after   10 cycles
 SCF Done:  E(RB3LYP) =  -3071.91691245     A.U. after    8 cycles
 Optimization completed.
    -- Stationary point found.
 Normal termination of Gaussian 16 at Mon Oct 14 23:39:15 2019.

 ---------------------------------------------------------------------
 #P Geom=AllCheck Guess=TCheck SCRF=Check GenChk RB3LYP/6-31+G(d) Freq
 ---------------------------------------------------------------------

 Structure from the checkpoint file:  "ts_6-31+gs.chk"
 -------------------
 Title Card Required
 -------------------
 Charge = -1 Multiplicity = 1

                         Standard orientation:
 ---------------------------------------------------------------------
 Center     Atomic      Atomic             Coordinates (Angstroms)
 Number     Number       Type             X           Y           Z
 ---------------------------------------------------------------------
      1          6           0        0.763600   -0.000036   -0.000002
      2          1           0        0.765312    0.538816   -0.929528
      3          1           0        0.765312    0.535664    0.931345
      4          1           0        0.765299   -1.074453   -0.001821
      5         17           0        3.133135    0.000005    0.000000
      6         35           0       -1.718309    0.000003    0.000000
 ---------------------------------------------------------------------

 SCF Done:  E(RB3LYP) =  -3071.91691245     A.U. after    1 cycles

 The electronic state is 1-A.
 Alpha  occ. eigenvalues -- -482.70971-101.32205 -61.67054 -56.18732 -56.18564
 Alpha  occ. eigenvalues --  -56.18564 -10.10942  -9.23633  -8.37756  -6.99664
 Alpha  occ. eigenvalues --   -6.99266  -6.99266  -6.32526  -6.32031  -6.32031
 Alpha  occ. eigenvalues --   -2.44165  -2.44032  -2.44032  -2.43638  -2.43638
 Alpha  occ. eigenvalues --   -0.60278  -0.56163  -0.51842  -0.30906  -0.30903
 Alpha  occ. eigenvalues --   -0.17538  -0.11163  -0.11163  -0.10075  -0.10075
 Alpha  occ. eigenvalues --   -0.09359
 Alpha virt. eigenvalues --    0.09861   0.12887   0.16376   0.17244   0.17244
 Alpha virt. eigenvalues --    0.18419   0.20573   0.20574   0.22395   0.23977
 Alpha virt. eigenvalues --    0.23977   0.28917   0.32225   0.32228   0.33344

 Mulliken charges:
               1
     1  C   -0.594847
     2  H    0.266949
     3  H    0.266949
     4  H    0.266945
     5  Cl  -0.613220
     6  Br  -0.592775
 Sum of Mulliken charges =  -1.00000

 Dipole moment (field-independent basis, Debye):
    X=             -3.3819    Y=             -0.0000    Z=             -0.0000  Tot=              3.3819
 Quadrupole moment (field-independent basis, Debye-Ang):
   XX=            -86.9912   YY=            -44.0747   ZZ=            -44.0752
   XY=             -0.0001   XZ=             -0.0000   YZ=              0.0000

  Exact polarizability: 150.044  -0.000  45.851   0.000   0.000  45.849
 Approx polarizability: 208.146   0.000  58.735   0.000  -0.000  58.735

 ******    1 imaginary frequencies (negative Signs) ******

                      1                      2                      3
                      A                      A                      A
 Frequencies --   -345.8947               172.3585               220.2430
 Red. masses --     12.7830                36.2483                 4.1602
 Frc consts  --      0.9011                 0.6345                 0.1189
 IR Inten    --   1174.4434                 6.5816                11.1568

                      4                      5                      6
                      A                      A                      A
 Frequencies --    220.2599               919.1131               919.1213
 Red. masses --      4.1604                 1.0109                 1.0109
 Frc consts  --      0.1189                 0.5032                 0.5032
 IR Inten    --     11.1566                 0.0131                 0.0132

                      7                      8                      9
                      A                      A                      A
 Frequencies --   1024.9552              1423.6877              1423.8546
 Red. masses --      1.0368                 1.1056                 1.1056
 Frc consts  --      0.6418                 1.3203                 1.3206
 IR Inten    --    176.2149                 4.1444                 4.1409

                     10                     11                     12
                      A                      A                      A
 Frequencies --   3227.1916              3422.8359              3422.9106
 Red. masses --      1.0078                 1.1235                 1.1235
 Frc consts  --      6.1842                 7.7554                 7.7558
 IR Inten    --      0.2827                 5.5915                 5.5980

 - Thermochemistry -
 -------------------
 Temperature   298.150 Kelvin.  Pressure   1.00000 Atm.
 Atom     1 has atomic number  6 and mass  12.00000

 Molecular mass:   128.91066 amu.
 Principal axes and moments of inertia in atomic units:
                           1         2         3
     Eigenvalues --    12.463862089.618782089.61978
           X            1.00000   0.00000  -0.00000
           Y           -0.00000   1.00000  -0.00000
           Z            0.00000   0.00000   1.00000
 This molecule is an asymmetric top.
 Rotational symmetry number  1.
 Rotational temperatures (Kelvin)      6.94920     0.04145     0.04145
 Rotational constants (GHZ):         144.79790     0.86367     0.86367
    1 imaginary frequencies ignored.
 Zero-point vibrational energy      98073.0 (Joules/Mol)
                                   23.44002 (Kcal/Mol)
 Warning -- explicit consideration of   3 degrees of freedom as
           vibrations may cause significant error
 Vibrational temperatures:    247.99   316.88   316.90  1322.40  1322.41
          (Kelvin)           1474.68  2048.37  2048.61  4643.21  4924.70
                             4924.80

 Zero-point correction=                           0.037354 (Hartree/Particle)
 Thermal correction to Energy=                    0.041999
 Thermal correction to Enthalpy=                  0.042943
 Thermal correction to Gibbs Free Energy=         0.008412
 Sum of electronic and zero-point Energies=          -3071.879558
 Sum of electronic and thermal Energies=             -3071.874914
 Sum of electronic and thermal Enthalpies=           -3071.873970
 Sum of electronic and thermal Free Energies=        -3071.908500

                     E (Thermal)             CV                S
                      KCal/Mol        Cal/Mol-Kelvin    Cal/Mol-Kelvin
 Total                   26.355             12.953             72.676
 Electronic               0.000              0.000              0.000
 Translational            0.889              2.981             40.475
 Rotational               0.889              2.981             25.501
 Vibrational             24.577              6.992              6.700
 Vibration     1          0.626              1.876              2.410
 Vibration     2          0.647              1.810              1.957
 Vibration     3          0.647              1.810              1.957

 Optimization completed.
    -- Stationary point found.
 Normal termination of Gaussian 16 at Mon Oct 14 23:39:21 2019.
