 Gaussian 16, Revision A.03,
 Gaussian 16:  ES64L-G16RevA.03 25-Dec-2016

 ----------------------------------------------------------------------
 #p opt=(gdiis,calcfc,maxcyc=50,ts,noeigen) freq b3lyp def2tzvp em=gd3b
 j scrf=(pcm,solvent=benzene)
 ----------------------------------------------------------------------

 -------------------
 Title Card Required
 -------------------
 Symbolic Z-matrix:
 Charge = -1 Multiplicity = 1

 SCF Done:  E(RB3LYP) =  -3074.47291298     A.U. after   11 cycles
 SCF Done:  E(RB3LYP) =  -3074.47283822     A.U. after    9 cycles
 SCF Done:  E(RB3LYP) =  -3074.47283479     A.U. after    8 cycles
 SCF Done:  E(RB3LYP) =  -3074.47288139     A.U. after    8 cycles
 SCF Done:  E(RB3LYP) =  -3074.47273874     A.U. after    9 cycles
 SCF Done:  E(RB3LYP) =  -3074.47286847     A.U. after    9 cycles
 SCF Done:  E(RB3LYP) =  -3074.47287965     A.U. after    8 cycles
 SCF Done:  E(RB3LYP) =  -3074.47287580     A.U. after    8 cycles
 SCF Done:  E(RB3LYP) =  -3074.47287855     A.U. after    8 cycles
 SCF Done:  E(RB3LYP) =  -3074.47284576     A.U. after    8 cycles
 SCF Done:  E(RB3LYP) =  -3074.47288403     A.U. after    8 cycles
 SCF Done:  E(RB3LYP) =  -3074.47262633     A.U. after   10 cycles
 SCF Done:  E(RB3LYP) =  -3074.47288050     A.U. after   10 cycles
 SCF Done:  E(RB3LYP) =  -3074.47287642     A.U. after    8 cycles
 SCF Done:  E(RB3LYP) =  -3074.47285037     A.U. after    8 cycles
 SCF Done:  E(RB3LYP) =  -3074.47286359     A.U. after    8 cycles
 SCF Done:  E(RB3LYP) =  -3074.47278323     A.U. after    8 cycles
 SCF Done:  E(RB3LYP) =  -3074.47287366     A.U. after    8 cycles
 SCF Done:  E(RB3LYP) =  -3074.47285577     A.U. after    7 cycles
 Optimization completed.
    -- Stationary point found.
 Normal termination of Gaussian 16 at Fri Oct 18 03:24:47 2019.

 --------------------------------------------------------------------
 #P Geom=AllCheck Guess=TCheck SCRF=Check GenChk RB3LYP/def2TZVP Freq
 --------------------------------------------------------------------

 Structure from the checkpoint file:  "ts2_pcm_benzene_maugccpvtz.chk"
 -------------------
 Title Card Required
 -------------------
 Charge = -1 Multiplicity = 1

                         Standard orientation:
 ---------------------------------------------------------------------
 Center     Atomic      Atomic             Coordinates (Angstroms)
 Number     Number       Type             X           Y           Z
 ---------------------------------------------------------------------
      1          6           0       -0.730712   -0.002576   -0.001199
      2          1           0       -0.761298   -0.604351    0.883352
      3          1           0       -0.759514    1.064490    0.077016
      4          1           0       -0.761223   -0.468577   -0.964299
      5         17           0       -3.138326    0.000734    0.000332
      6         35           0        1.714796    0.000326    0.000157
 ---------------------------------------------------------------------

 SCF Done:  E(RB3LYP) =  -3074.47285577     A.U. after    1 cycles

 The electronic state is 1-A.
 Alpha  occ. eigenvalues -- -482.72578-101.36436 -62.37432 -56.18912 -56.18753
 Alpha  occ. eigenvalues --  -56.18753 -10.16673  -9.29640  -8.56517  -7.05441
 Alpha  occ. eigenvalues --   -7.05116  -7.05116  -6.39059  -6.38572  -6.38572
 Alpha  occ. eigenvalues --   -2.50573  -2.50441  -2.50441  -2.50053  -2.50053
 Alpha  occ. eigenvalues --   -0.67748  -0.64445  -0.59963  -0.38364  -0.38347
 Alpha  occ. eigenvalues --   -0.25346  -0.19105  -0.19102  -0.18421  -0.18419
 Alpha  occ. eigenvalues --   -0.17317
 Alpha virt. eigenvalues --    0.02455   0.11432   0.17625   0.17628   0.25818
 Alpha virt. eigenvalues --    0.26359   0.26361   0.32873   0.33645   0.33647
 Alpha virt. eigenvalues --    0.38882   0.38894   0.40365   0.41485   0.41485

 Mulliken charges:
               1
     1  C   -0.151361
     2  H    0.156041
     3  H    0.156116
     4  H    0.156161
     5  Cl  -0.680806
     6  Br  -0.636152
 Sum of Mulliken charges =  -1.00000

 Dipole moment (field-independent basis, Debye):
    X=              3.8694    Y=             -0.0095    Z=             -0.0045  Tot=              3.8694
 Quadrupole moment (field-independent basis, Debye-Ang):
   XX=            -84.5757   YY=            -42.4773   ZZ=            -42.4792
   XY=              0.0123   XZ=              0.0053   YZ=              0.0002

  Exact polarizability: 157.274   0.003  43.364  -0.003  -0.005  43.349
 Approx polarizability: 206.044   0.005  60.622   0.001  -0.001  60.611

 ******    1 imaginary frequencies (negative Signs) ******

                      1                      2                      3
                      A                      A                      A
 Frequencies --   -363.9786               167.2493               168.6974
 Red. masses --     12.5755                14.6760                 4.8317
 Frc consts  --      0.9816                 0.2419                 0.0810
 IR Inten    --   1350.5892                 5.4424                10.8658

                      4                      5                      6
                      A                      A                      A
 Frequencies --    187.0747               860.9773               882.0361
 Red. masses --      4.3392                 1.0119                 1.0113
 Frc consts  --      0.0895                 0.4419                 0.4636
 IR Inten    --     11.1696                 1.6005                 0.4376

                      7                      8                      9
                      A                      A                      A
 Frequencies --   1000.1317              1396.6721              1414.5395
 Red. masses --      1.0371                 1.1041                 1.1034
 Frc consts  --      0.6112                 1.2690                 1.3009
 IR Inten    --    172.9192                 5.4050                 5.4324

                     10                     11                     12
                      A                      A                      A
 Frequencies --   3195.5370              3387.7390              3392.6813
 Red. masses --      1.0080                 1.1237                 1.1227
 Frc consts  --      6.0646                 7.5983                 7.6138
 IR Inten    --      0.3121                 5.9649                 5.6567

 - Thermochemistry -
 -------------------
 Temperature   298.150 Kelvin.  Pressure   1.00000 Atm.
 Atom     1 has atomic number  6 and mass  12.00000

 Molecular mass:   128.91066 amu.
 Principal axes and moments of inertia in atomic units:
                           1         2         3
     Eigenvalues --    12.359662088.088322088.09519
           X            1.00000   0.00001   0.00000
           Y           -0.00001   0.99992  -0.01268
           Z           -0.00000   0.01268   0.99992
 This molecule is an asymmetric top.
 Rotational symmetry number  1.
 Rotational temperatures (Kelvin)      7.00779     0.04148     0.04148
 Rotational constants (GHZ):         146.01864     0.86430     0.86430
    1 imaginary frequencies ignored.
 Zero-point vibrational energy      96020.3 (Joules/Mol)
                                   22.94940 (Kcal/Mol)
 Warning -- explicit consideration of   3 degrees of freedom as
           vibrations may cause significant error
 Vibrational temperatures:    240.63   242.72   269.16  1238.75  1269.05
          (Kelvin)           1438.97  2009.50  2035.21  4597.67  4874.20
                             4881.31

 Zero-point correction=                           0.036572 (Hartree/Particle)
 Thermal correction to Energy=                    0.041383
 Thermal correction to Enthalpy=                  0.042327
 Thermal correction to Gibbs Free Energy=         0.007367
 Sum of electronic and zero-point Energies=          -3074.436284
 Sum of electronic and thermal Energies=             -3074.431473
 Sum of electronic and thermal Enthalpies=           -3074.430529
 Sum of electronic and thermal Free Energies=        -3074.465489

                     E (Thermal)             CV                S
                      KCal/Mol        Cal/Mol-Kelvin    Cal/Mol-Kelvin
 Total                   25.968             13.248             73.581
 Electronic               0.000              0.000              0.000
 Translational            0.889              2.981             40.475
 Rotational               0.889              2.981             25.491
 Vibrational             24.191              7.287              7.614
 Vibration     1          0.624              1.883              2.466
 Vibration     2          0.625              1.881              2.450
 Vibration     3          0.632              1.858              2.257

                           ! Non-Optimized Parameters !
 Normal termination of Gaussian 16 at Fri Oct 18 03:25:17 2019.
