 Gaussian 16, Revision A.03,
 Gaussian 16:  ES64L-G16RevA.03 25-Dec-2016

 ----------------------------------------------------------------------
 #p irc=(calcfc,lqa,maxpoint=30) M062X/genecp geom=allcheck scrf=(smd,s
 olvent=benzene)
 ----------------------------------------------------------------------

 Structure from the checkpoint file:  "Pt_tsb.chk"
 -------------------
 Title Card Required
 -------------------
 Charge =  0 Multiplicity = 1

 SCF Done:  E(RM062X) =  -1042.42539315     A.U. after   14 cycles
 SCF Done:  E(RM062X) =  -1042.42540074     A.U. after   11 cycles
 SCF Done:  E(RM062X) =  -1042.42541880     A.U. after   10 cycles
 SCF Done:  E(RM062X) =  -1042.42545291     A.U. after   11 cycles
 SCF Done:  E(RM062X) =  -1042.42552044     A.U. after   11 cycles
 SCF Done:  E(RM062X) =  -1042.42564472     A.U. after   11 cycles
 SCF Done:  E(RM062X) =  -1042.42584021     A.U. after   11 cycles
 SCF Done:  E(RM062X) =  -1042.42606367     A.U. after   11 cycles
 SCF Done:  E(RM062X) =  -1042.42629496     A.U. after   11 cycles
 SCF Done:  E(RM062X) =  -1042.42642923     A.U. after   11 cycles
 SCF Done:  E(RM062X) =  -1042.45508217     A.U. after    9 cycles
 SCF Done:  E(RM062X) =  -1042.45536373     A.U. after    9 cycles
 SCF Done:  E(RM062X) =  -1042.45561627     A.U. after    9 cycles
 SCF Done:  E(RM062X) =  -1042.45584841     A.U. after    9 cycles
 SCF Done:  E(RM062X) =  -1042.45606472     A.U. after    9 cycles
 SCF Done:  E(RM062X) =  -1042.45626934     A.U. after    9 cycles
 SCF Done:  E(RM062X) =  -1042.45646412     A.U. after    9 cycles
 SCF Done:  E(RM062X) =  -1042.45665019     A.U. after    9 cycles
 SCF Done:  E(RM062X) =  -1042.45682761     A.U. after    9 cycles
 SCF Done:  E(RM062X) =  -1042.45699662     A.U. after    9 cycles

                          Input orientation:
 ---------------------------------------------------------------------
 Center     Atomic      Atomic             Coordinates (Angstroms)
 Number     Number       Type             X           Y           Z
 ---------------------------------------------------------------------
      1         78           0       -0.048185   -0.308178    0.630255
      2         15           0        1.920336    0.293902   -0.442516
      3         15           0       -1.822600    0.268082   -0.754444
      4          6           0        2.122915    2.048600   -0.945869
      5          1           0        1.970373    2.691381   -0.073618
      6          1           0        3.120061    2.233807   -1.359448
      7          1           0        1.369877    2.308424   -1.696622
      8          6           0        3.417001    0.036894    0.585738
      9          1           0        3.483904   -1.020189    0.858494
     10          1           0        4.328837    0.338402    0.058984
     11          1           0        3.318282    0.616425    1.508194
     12          6           0        2.365966   -0.608590   -1.977471
     13          1           0        1.606382   -0.430806   -2.744996
     14          1           0        3.343881   -0.293666   -2.357293
     15          1           0        2.390711   -1.681791   -1.765938
     16          6           0       -2.429934    1.981280   -0.504332
     17          1           0       -1.654329    2.694434   -0.800144
     18          1           0       -3.338930    2.173388   -1.084769
     19          1           0       -2.640379    2.130010    0.559031
     20          6           0       -3.336076   -0.717098   -0.432845
     21          1           0       -4.158973   -0.420891   -1.092116
     22          1           0       -3.115343   -1.778414   -0.580084
     23          1           0       -3.632896   -0.576554    0.610043
     24          6           0       -1.701102    0.162299   -2.584986
     25          1           0       -1.422038   -0.856589   -2.870909
     26          1           0       -2.651122    0.420267   -3.065358
     27          1           0       -0.925883    0.846497   -2.944711
     28          1           0       -1.181375   -0.818382    1.641020
     29          1           0        0.882296   -0.800071    1.834395
 ---------------------------------------------------------------------

 Alpha  occ. eigenvalues --  -78.05199 -78.05193 -10.53738 -10.53681 -10.53580
 Alpha  occ. eigenvalues --  -10.53462 -10.52998 -10.52958  -6.86812  -6.86802
 Alpha  occ. eigenvalues --   -4.98179  -4.98168  -4.98162  -4.98153  -4.97964
 Alpha  occ. eigenvalues --   -4.97955  -4.05208  -2.27059  -2.26632  -2.23720
 Alpha  occ. eigenvalues --   -0.86452  -0.86203  -0.78453  -0.78343  -0.77999
 Alpha  occ. eigenvalues --   -0.77911  -0.62594  -0.61696  -0.51927  -0.50812
 Alpha  occ. eigenvalues --   -0.49932  -0.49362  -0.49327  -0.49262  -0.47042
 Alpha  occ. eigenvalues --   -0.46766  -0.46641  -0.46458  -0.44926  -0.44906
 Alpha  occ. eigenvalues --   -0.43331  -0.42716  -0.39797  -0.39246  -0.39203
 Alpha  occ. eigenvalues --   -0.38578  -0.34186  -0.30965  -0.30448  -0.29114
 Alpha  occ. eigenvalues --   -0.27803  -0.26249
 Alpha virt. eigenvalues --    0.00958   0.01162   0.04568   0.05704   0.08771
 Alpha virt. eigenvalues --    0.09619   0.10401   0.12097   0.12317   0.12687
 Alpha virt. eigenvalues --    0.12780   0.14178   0.14521   0.15756   0.16060

 Mulliken charges:
               1
     1  Pt  -0.955856
     2  P    0.590459
     3  P    0.584188
     4  C   -0.683326
     5  H    0.227313
     6  H    0.196120
     7  H    0.204736
     8  C   -0.677596
     9  H    0.228377
    10  H    0.184349
    11  H    0.228259
    12  C   -0.680810
    13  H    0.207703
    14  H    0.194619
    15  H    0.228107
    16  C   -0.681325
    17  H    0.213661
    18  H    0.193710
    19  H    0.232670
    20  C   -0.677693
    21  H    0.185756
    22  H    0.226477
    23  H    0.229705
    24  C   -0.684841
    25  H    0.221067
    26  H    0.196451
    27  H    0.201949
    28  H    0.031324
    29  H    0.034444
 Sum of Mulliken charges =  -0.00000

 Dipole moment (field-independent basis, Debye):
    X=              0.4734    Y=              2.9706    Z=             -6.1308  Tot=              6.8290
 Quadrupole moment (field-independent basis, Debye-Ang):
   XX=            -76.2587   YY=            -92.0402   ZZ=            -95.3957
   XY=             -0.1162   XZ=              1.5129   YZ=              2.0807

  Exact polarizability:   0.000   0.000   0.000   0.000   0.000   0.000
 Approx polarizability: 192.341   0.919 168.229   1.646  -5.868 178.235

 Normal termination of Gaussian 16 at Thu Nov  7 01:53:24 2019.
