 Gaussian 16, Revision A.03,
 Gaussian 16:  ES64L-G16RevA.03 25-Dec-2016

 ----------------------------------------------------------------------
 #p irc=(calcfc,lqa,maxpoint=30,stepsize=15) genecp scrf=(smd,solvent=b
 enzene) m062x
 ----------------------------------------------------------------------

 -------------------
 Title Card Required
 -------------------
 Symbolic Z-matrix:
 Charge =  0 Multiplicity = 1

 SCF Done:  E(RM062X) =  -1042.42535738     A.U. after   14 cycles
 SCF Done:  E(RM062X) =  -1042.42537099     A.U. after   11 cycles
 SCF Done:  E(RM062X) =  -1042.42546252     A.U. after   11 cycles
 SCF Done:  E(RM062X) =  -1042.42598239     A.U. after   12 cycles
 SCF Done:  E(RM062X) =  -1042.42756503     A.U. after   12 cycles
 SCF Done:  E(RM062X) =  -1042.43135925     A.U. after   12 cycles
 SCF Done:  E(RM062X) =  -1042.43798561     A.U. after   11 cycles
 SCF Done:  E(RM062X) =  -1042.44449501     A.U. after   11 cycles
 SCF Done:  E(RM062X) =  -1042.44904849     A.U. after   11 cycles
 SCF Done:  E(RM062X) =  -1042.45081300     A.U. after   11 cycles
 SCF Done:  E(RM062X) =  -1042.42926368     A.U. after   10 cycles
 SCF Done:  E(RM062X) =  -1042.42948185     A.U. after   10 cycles
 SCF Done:  E(RM062X) =  -1042.42969964     A.U. after   10 cycles
 SCF Done:  E(RM062X) =  -1042.42991646     A.U. after   10 cycles
 SCF Done:  E(RM062X) =  -1042.43013236     A.U. after   10 cycles
 SCF Done:  E(RM062X) =  -1042.43034797     A.U. after   10 cycles
 SCF Done:  E(RM062X) =  -1042.43056422     A.U. after   10 cycles
 SCF Done:  E(RM062X) =  -1042.43078192     A.U. after   10 cycles
 SCF Done:  E(RM062X) =  -1042.43100102     A.U. after   10 cycles
 SCF Done:  E(RM062X) =  -1042.43122104     A.U. after   10 cycles

                          Input orientation:
 ---------------------------------------------------------------------
 Center     Atomic      Atomic             Coordinates (Angstroms)
 Number     Number       Type             X           Y           Z
 ---------------------------------------------------------------------
      1         78           0        0.000340   -0.408005   -0.007111
      2         15           0        2.131607    0.313798    0.009048
      3         15           0       -2.129566    0.311783    0.002171
      4          6           0        2.396428    1.547471    1.348870
      5          1           0        2.302715    1.056739    2.322148
      6          1           0        3.384278    2.016426    1.273839
      7          1           0        1.622307    2.317358    1.281519
      8          6           0        3.677571   -0.680357    0.151731
      9          1           0        3.733313   -1.390897   -0.678745
     10          1           0        4.568230   -0.041764    0.137960
     11          1           0        3.660005   -1.250091    1.085893
     12          6           0        2.508955    1.323809   -1.482225
     13          1           0        1.728481    2.080194   -1.606834
     14          1           0        3.483999    1.817087   -1.396886
     15          1           0        2.505106    0.683447   -2.369243
     16          6           0       -2.705204    0.902706    1.646495
     17          1           0       -1.960047    1.588742    2.059650
     18          1           0       -3.670577    1.416158    1.572690
     19          1           0       -2.799829    0.053403    2.329545
     20          6           0       -3.619678   -0.600609   -0.583946
     21          1           0       -4.521460    0.018762   -0.518530
     22          1           0       -3.471355   -0.908111   -1.623642
     23          1           0       -3.759266   -1.502236    0.020364
     24          6           0       -2.264450    1.854007   -0.994173
     25          1           0       -2.038764    1.632092   -2.041399
     26          1           0       -3.266656    2.292558   -0.924617
     27          1           0       -1.525640    2.575757   -0.633661
     28          1           0       -0.383949   -3.247420   -0.162420
     29          1           0        0.356477   -3.264642   -0.129749
 ---------------------------------------------------------------------

 Alpha  occ. eigenvalues --  -78.04282 -78.04258 -10.52641 -10.52633 -10.52625
 Alpha  occ. eigenvalues --  -10.52607 -10.52605 -10.52599  -6.85815  -6.85791
 Alpha  occ. eigenvalues --   -4.97184  -4.97178  -4.97158  -4.97155  -4.96976
 Alpha  occ. eigenvalues --   -4.96952  -3.99407  -2.22034  -2.19659  -2.19268
 Alpha  occ. eigenvalues --   -0.85456  -0.85282  -0.77351  -0.77323  -0.77300
 Alpha  occ. eigenvalues --   -0.77284  -0.61894  -0.60637  -0.50726  -0.50078
 Alpha  occ. eigenvalues --   -0.48722  -0.48616  -0.48596  -0.48530  -0.48314
 Alpha  occ. eigenvalues --   -0.45919  -0.45876  -0.45806  -0.45786  -0.44184
 Alpha  occ. eigenvalues --   -0.44153  -0.39952  -0.38529  -0.38507  -0.38045
 Alpha  occ. eigenvalues --   -0.37946  -0.33080  -0.27595  -0.25532  -0.25432
 Alpha  occ. eigenvalues --   -0.23295  -0.23209
 Alpha virt. eigenvalues --    0.00930   0.01427   0.03515   0.04898   0.08390
 Alpha virt. eigenvalues --    0.10028   0.10788   0.11697   0.12502   0.12684
 Alpha virt. eigenvalues --    0.13453   0.14812   0.15288   0.15780   0.16438

 Mulliken charges:
               1
     1  Pt  -0.631033
     2  P    0.477532
     3  P    0.481091
     4  C   -0.677324
     5  H    0.219820
     6  H    0.184247
     7  H    0.221131
     8  C   -0.685855
     9  H    0.211850
    10  H    0.184095
    11  H    0.212859
    12  C   -0.676845
    13  H    0.221624
    14  H    0.184866
    15  H    0.219115
    16  C   -0.678325
    17  H    0.221972
    18  H    0.185641
    19  H    0.217693
    20  C   -0.685698
    21  H    0.184416
    22  H    0.215002
    23  H    0.211244
    24  C   -0.676336
    25  H    0.220577
    26  H    0.183539
    27  H    0.220138
    28  H    0.016006
    29  H    0.016959
 Sum of Mulliken charges =  -0.00000

 Dipole moment (field-independent basis, Debye):
    X=             -0.0268    Y=              2.1372    Z=              0.0374  Tot=              2.1377
 Quadrupole moment (field-independent basis, Debye-Ang):
   XX=            -75.8312   YY=            -91.4595   ZZ=            -92.1372
   XY=              0.0422   XZ=             -0.0880   YZ=              0.0257

  Exact polarizability:   0.000   0.000   0.000   0.000   0.000   0.000
 Approx polarizability: 211.515  -0.051 170.342   0.297  -0.326 172.151

 Normal termination of Gaussian 16 at Thu Nov  7 18:58:05 2019.
