 Gaussian 16, Revision A.03,
 Gaussian 16:  ES64L-G16RevA.03 25-Dec-2016

 ------------------------------------------------------------
 #p b3lyp/genecp opt freq em=gd3bj scrf=(smd,solvent=benzene)
 ------------------------------------------------------------

 -------------------
 Title Card Required
 -------------------
 Symbolic Z-matrix:
 Charge =  0 Multiplicity = 1

 SCF Done:  E(RB3LYP) =  -1041.71035358     A.U. after   11 cycles
 SCF Done:  E(RB3LYP) =  -1041.73267125     A.U. after   12 cycles
 SCF Done:  E(RB3LYP) =  -1041.73854243     A.U. after   11 cycles
 SCF Done:  E(RB3LYP) =  -1041.73911584     A.U. after    9 cycles
 SCF Done:  E(RB3LYP) =  -1041.73915580     A.U. after   11 cycles
 SCF Done:  E(RB3LYP) =  -1041.73520957     A.U. after   12 cycles
 SCF Done:  E(RB3LYP) =  -1041.73921076     A.U. after   10 cycles
 SCF Done:  E(RB3LYP) =  -1041.73910568     A.U. after   10 cycles
 SCF Done:  E(RB3LYP) =  -1041.73921912     A.U. after   10 cycles
 SCF Done:  E(RB3LYP) =  -1041.73923218     A.U. after    7 cycles
 Optimization completed.
    -- Stationary point found.
 Normal termination of Gaussian 16 at Wed Oct 30 13:14:59 2019.

 ------------------------------------------------------------------
 #P Geom=AllCheck Guess=TCheck SCRF=Check GenChk RB3LYP/GenECP Freq
 ------------------------------------------------------------------

 Structure from the checkpoint file:  "Pt_preR.chk"
 -------------------
 Title Card Required
 -------------------
 Charge =  0 Multiplicity = 1

                         Standard orientation:
 ---------------------------------------------------------------------
 Center     Atomic      Atomic             Coordinates (Angstroms)
 Number     Number       Type             X           Y           Z
 ---------------------------------------------------------------------
      1         78           0       -0.000006   -0.000182    0.000278
      2         15           0        2.278802   -0.000006   -0.000138
      3         15           0       -2.278823    0.000108   -0.000007
      4          6           0        3.094514    1.005765   -1.314818
      5          1           0        2.778852    2.050263   -1.221881
      6          1           0        4.188197    0.951446   -1.243487
      7          1           0        2.779189    0.642916   -2.298776
      8          6           0        3.095626    0.635983    1.527571
      9          1           0        2.780446    0.033908    2.386313
     10          1           0        4.189226    0.601088    1.444160
     11          1           0        2.780805    1.669755    1.705014
     12          6           0        3.095329   -1.641079   -0.213792
     13          1           0        2.779761   -2.083423   -1.164608
     14          1           0        4.188974   -1.551639   -0.202675
     15          1           0        2.780523   -2.311727    0.592686
     16          6           0       -3.095757   -1.003756    1.315364
     17          1           0       -2.780802   -0.639858    2.299054
     18          1           0       -4.189373   -0.949032    1.243363
     19          1           0       -2.780520   -2.048510    1.223865
     20          6           0       -3.094796   -0.637334   -1.527547
     21          1           0       -4.188448   -0.602251   -1.444874
     22          1           0       -2.778992   -0.036116   -2.386660
     23          1           0       -2.779961   -1.671304   -1.703797
     24          6           0       -3.094847    1.641760    0.211154
     25          1           0       -2.778938    2.311459   -0.595678
     26          1           0       -4.188517    1.552756    0.199025
     27          1           0       -2.780058    2.084926    1.161845
 ---------------------------------------------------------------------

 SCF Done:  E(RB3LYP) =  -1041.73923218     A.U. after    1 cycles

 The electronic state is 1-A.
 Alpha  occ. eigenvalues --  -77.08618 -77.08617 -10.17159 -10.17159 -10.17159
 Alpha  occ. eigenvalues --  -10.17159 -10.17158 -10.17157  -6.56394  -6.56393
 Alpha  occ. eigenvalues --   -4.72584  -4.72584  -4.72583  -4.72583  -4.72241
 Alpha  occ. eigenvalues --   -4.72239  -3.83562  -2.10145  -2.06788  -2.06788
 Alpha  occ. eigenvalues --   -0.76507  -0.76325  -0.68934  -0.68934  -0.68928
 Alpha  occ. eigenvalues --   -0.68927  -0.54979  -0.53584  -0.44276  -0.43657
 Alpha  occ. eigenvalues --   -0.42480  -0.42479  -0.42409  -0.42407  -0.40027
 Alpha  occ. eigenvalues --   -0.40026  -0.39956  -0.39955  -0.38466  -0.38464
 Alpha  occ. eigenvalues --   -0.34771  -0.33539  -0.33538  -0.33199  -0.33198
 Alpha  occ. eigenvalues --   -0.24842  -0.21524  -0.21524  -0.18181  -0.18057
 Alpha  occ. eigenvalues --   -0.18054
 Alpha virt. eigenvalues --   -0.01060  -0.01060  -0.00289   0.00562   0.02674
 Alpha virt. eigenvalues --    0.03332   0.03332   0.05050   0.05051   0.05735
 Alpha virt. eigenvalues --    0.05761   0.05761   0.06074   0.06499   0.06501

 Mulliken charges:
               1
     1  Pt  -0.528816
     2  P    0.616840
     3  P    0.616795
     4  C   -0.831494
     5  H    0.245616
     6  H    0.222961
     7  H    0.245539
     8  C   -0.831576
     9  H    0.245585
    10  H    0.223006
    11  H    0.245543
    12  C   -0.831819
    13  H    0.245631
    14  H    0.223021
    15  H    0.245551
    16  C   -0.831572
    17  H    0.245539
    18  H    0.222974
    19  H    0.245614
    20  C   -0.831504
    21  H    0.223000
    22  H    0.245586
    23  H    0.245549
    24  C   -0.831770
    25  H    0.245559
    26  H    0.223019
    27  H    0.245624
 Sum of Mulliken charges =  -0.00000

 Dipole moment (field-independent basis, Debye):
    X=             -0.0003    Y=              0.0010    Z=             -0.0015  Tot=              0.0018
 Quadrupole moment (field-independent basis, Debye-Ang):
   XX=            -71.4011   YY=            -91.5663   ZZ=            -91.5668
   XY=              0.0010   XZ=             -0.0003   YZ=              0.0010

  Exact polarizability: 256.950   0.020 176.999   0.009   0.026 176.934
 Approx polarizability: 277.901   0.002 235.584   0.004   0.002 235.570

 ******    1 imaginary frequencies (negative Signs) ******

                      1                      2                      3
                      A                      A                      A
 Frequencies --    -11.9318                28.2149                29.5522
 Red. masses --      2.8292                 4.1702                 4.1888
 Frc consts  --      0.0002                 0.0020                 0.0022
 IR Inten    --      0.0218                 2.7994                 2.8128

                      4                      5                      6
                      A                      A                      A
 Frequencies --    130.3155               131.2113               180.9893
 Red. masses --      3.0373                 3.0514                 1.0444
 Frc consts  --      0.0304                 0.0310                 0.0202
 IR Inten    --      0.0000                 0.0000                 0.0550

                      7                      8                      9
                      A                      A                      A
 Frequencies --    181.0560               184.0706               184.6877
 Red. masses --      1.0201                 2.9176                 2.9908
 Frc consts  --      0.0197                 0.0582                 0.0601
 IR Inten    --      0.0034                 0.8546                 0.8648

                     10                     11                     12
                      A                      A                      A
 Frequencies --    187.4051               203.8909               223.3205
 Red. masses --      3.1852                 4.3857                 1.0596
 Frc consts  --      0.0659                 0.1074                 0.0311
 IR Inten    --      0.0000                 2.1995                 0.0000

                     13                     14                     15
                      A                      A                      A
 Frequencies --    224.5307               224.9342               226.1180
 Red. masses --      1.0887                 1.0592                 1.0844
 Frc consts  --      0.0323                 0.0316                 0.0327
 IR Inten    --      0.0371                 0.0000                 0.0189

                     16                     17                     18
                      A                      A                      A
 Frequencies --    255.2143               256.0016               263.9496
 Red. masses --      2.3973                 2.4107                 2.6725
 Frc consts  --      0.0920                 0.0931                 0.1097
 IR Inten    --      0.0000                 0.0000                 2.2094

                     19                     20                     21
                      A                      A                      A
 Frequencies --    264.8162               335.8770               372.8897
 Red. masses --      2.6822                 3.8735                 3.7578
 Frc consts  --      0.1108                 0.2575                 0.3079
 IR Inten    --      2.2685               108.3454                 0.0000

                     22                     23                     24
                      A                      A                      A
 Frequencies --    662.8535               674.5786               723.4008
 Red. masses --      4.2227                 4.1522                 4.1568
 Frc consts  --      1.0931                 1.1133                 1.2817
 IR Inten    --     86.9519                 0.0000                31.3335

                     25                     26                     27
                      A                      A                      A
 Frequencies --    723.4604               723.6635               723.7211
 Red. masses --      4.2338                 4.1661                 4.2406
 Frc consts  --      1.3056                 1.2854                 1.3087
 IR Inten    --      0.5073                31.0983                 0.8510

                     28                     29                     30
                      A                      A                      A
 Frequencies --    816.1905               816.2365               871.3295
 Red. masses --      1.1616                 1.1618                 1.2276
 Frc consts  --      0.4559                 0.4560                 0.5491
 IR Inten    --      0.0027                 0.0001                 0.0000

                     31                     32                     33
                      A                      A                      A
 Frequencies --    872.0022               879.9118               880.5581
 Red. masses --      1.2269                 1.2477                 1.2468
 Frc consts  --      0.5497                 0.5691                 0.5696
 IR Inten    --      0.0000                 7.3958                 7.6074

                     34                     35                     36
                      A                      A                      A
 Frequencies --    975.2534               979.9818               980.1334
 Red. masses --      1.4227                 1.3712                 1.3689
 Frc consts  --      0.7973                 0.7758                 0.7748
 IR Inten    --    539.2697                58.1627                 0.0088

                     37                     38                     39
                      A                      A                      A
 Frequencies --    980.7263               980.8794               997.0300
 Red. masses --      1.3688                 1.3666                 1.4808
 Frc consts  --      0.7757                 0.7747                 0.8673
 IR Inten    --     57.8607                 0.3281                 0.0000

                     40                     41                     42
                      A                      A                      A
 Frequencies --   1346.0685              1346.2594              1346.7263
 Red. masses --      1.2141                 1.2140                 1.2140
 Frc consts  --      1.2961                 1.2964                 1.2972
 IR Inten    --      0.0001                32.6162                 0.0200

                     43                     44                     45
                      A                      A                      A
 Frequencies --   1346.9115              1368.6002              1369.4667
 Red. masses --      1.2140                 1.2035                 1.2018
 Frc consts  --      1.2976                 1.3281                 1.3280
 IR Inten    --     32.2694                 5.2918                 0.0001

                     46                     47                     48
                      A                      A                      A
 Frequencies --   1475.0605              1475.1859              1484.9715
 Red. masses --      1.0544                 1.0544                 1.0495
 Frc consts  --      1.3516                 1.3519                 1.3636
 IR Inten    --      0.0000                 0.0134                 0.0000

                     49                     50                     51
                      A                      A                      A
 Frequencies --   1485.1374              1485.1886              1485.3591
 Red. masses --      1.0494                 1.0498                 1.0496
 Frc consts  --      1.3637                 1.3644                 1.3644
 IR Inten    --      0.5790                 0.0006                 0.1347

                     52                     53                     54
                      A                      A                      A
 Frequencies --   1490.5048              1490.5539              1490.7105
 Red. masses --      1.0498                 1.0500                 1.0501
 Frc consts  --      1.3742                 1.3745                 1.3749
 IR Inten    --     36.6709                36.2028                 0.0130

                     55                     56                     57
                      A                      A                      A
 Frequencies --   1490.7656              1505.7020              1506.0742
 Red. masses --      1.0504                 1.0454                 1.0448
 Frc consts  --      1.3754                 1.3965                 1.3963
 IR Inten    --      0.0284                12.3755                 0.0002

                     58                     59                     60
                      A                      A                      A
 Frequencies --   3045.5260              3045.5286              3045.6150
 Red. masses --      1.0355                 1.0355                 1.0355
 Frc consts  --      5.6586                 5.6586                 5.6590
 IR Inten    --      0.1216                24.0851                 7.6165

                     61                     62                     63
                      A                      A                      A
 Frequencies --   3045.6187              3046.2884              3046.9308
 Red. masses --      1.0355                 1.0353                 1.0351
 Frc consts  --      5.6590                 5.6606                 5.6616
 IR Inten    --     16.7627               155.9384                 0.0008

                     64                     65                     66
                      A                      A                      A
 Frequencies --   3125.8369              3125.9347              3125.9506
 Red. masses --      1.1016                 1.1015                 1.1015
 Frc consts  --      6.3415                 6.3418                 6.3418
 IR Inten    --      0.6157                 0.5533                 0.0006

                     67                     68                     69
                      A                      A                      A
 Frequencies --   3126.0490              3127.3508              3127.5970
 Red. masses --      1.1015                 1.1006                 1.1005
 Frc consts  --      6.3421                 6.3421                 6.3427
 IR Inten    --      0.0004               124.1437                 0.0111

                     70                     71                     72
                      A                      A                      A
 Frequencies --   3142.0720              3142.1086              3142.2978
 Red. masses --      1.1029                 1.1029                 1.1030
 Frc consts  --      6.4155                 6.4156                 6.4168
 IR Inten    --     14.1430                 0.0365                15.8147

                     73                     74                     75
                      A                      A                      A
 Frequencies --   3142.3366              3142.4833              3142.5085
 Red. masses --      1.1030                 1.1029                 1.1029
 Frc consts  --      6.4170                 6.4168                 6.4169
 IR Inten    --      0.1162                 2.1404                 0.1654

 - Thermochemistry -
 -------------------
 Temperature   298.150 Kelvin.  Pressure   1.00000 Atm.
 Atom     1 has atomic number 78 and mass 194.96480

 Molecular mass:   347.05318 amu.
 Principal axes and moments of inertia in atomic units:
                           1         2         3
     Eigenvalues --  1003.154384826.096104826.22409
           X            1.00000   0.00000   0.00000
           Y           -0.00000   0.99979   0.02063
           Z           -0.00000  -0.02063   0.99979
 This molecule is an asymmetric top.
 Rotational symmetry number  1.
 Warning -- assumption of classical behavior for rotation
           may cause significant error
 Rotational temperatures (Kelvin)      0.08634     0.01795     0.01795
 Rotational constants (GHZ):           1.79907     0.37395     0.37394
    1 imaginary frequencies ignored.
 Zero-point vibrational energy     605479.3 (Joules/Mol)
                                  144.71303 (Kcal/Mol)
 Warning -- explicit consideration of  20 degrees of freedom as
           vibrations may cause significant error
 Vibrational temperatures:     40.59    42.52   187.49   188.78   260.40
          (Kelvin)            260.50   264.84   265.72   269.63   293.35
                              321.31   323.05   323.63   325.33   367.20
                              368.33   379.76   381.01   483.25   536.51
                              953.70   970.57  1040.81  1040.90  1041.19
                             1041.27  1174.32  1174.38  1253.65  1254.62
                             1266.00  1266.93  1403.17  1409.98  1410.19
                             1411.05  1411.27  1434.50  1936.69  1936.97
                             1937.64  1937.91  1969.11  1970.36  2122.28
                             2122.46  2136.54  2136.78  2136.86  2137.10
                             2144.50  2144.57  2144.80  2144.88  2166.37
                             2166.90  4381.83  4381.84  4381.96  4381.97
                             4382.93  4383.85  4497.38  4497.52  4497.55
                             4497.69  4499.56  4499.91  4520.74  4520.79
                             4521.07  4521.12  4521.33  4521.37

 Zero-point correction=                           0.230615 (Hartree/Particle)
 Thermal correction to Energy=                    0.246150
 Thermal correction to Enthalpy=                  0.247094
 Thermal correction to Gibbs Free Energy=         0.186985
 Sum of electronic and zero-point Energies=          -1041.508617
 Sum of electronic and thermal Energies=             -1041.493082
 Sum of electronic and thermal Enthalpies=           -1041.492138
 Sum of electronic and thermal Free Energies=        -1041.552247

                     E (Thermal)             CV                S
                      KCal/Mol        Cal/Mol-Kelvin    Cal/Mol-Kelvin
 Total                  154.461             54.614            126.511
 Electronic               0.000              0.000              0.000
 Translational            0.889              2.981             43.427
 Rotational               0.889              2.981             31.525
 Vibrational            152.684             48.652             51.559
 Vibration     1          0.593              1.984              5.951
 Vibration     2          0.593              1.984              5.859
 Vibration     3          0.612              1.923              2.941
 Vibration     4          0.612              1.922              2.928
 Vibration     5          0.630              1.866              2.318
 Vibration     6          0.630              1.865              2.317
 Vibration     7          0.631              1.862              2.287
 Vibration     8          0.631              1.861              2.280
 Vibration     9          0.632              1.857              2.253
 Vibration    10          0.640              1.834              2.098
 Vibration    11          0.649              1.806              1.932
 Vibration    12          0.649              1.804              1.922
 Vibration    13          0.650              1.803              1.919
 Vibration    14          0.650              1.801              1.910
 Vibration    15          0.666              1.754              1.694
 Vibration    16          0.666              1.753              1.689
 Vibration    17          0.671              1.739              1.636
 Vibration    18          0.671              1.737              1.630
 Vibration    19          0.717              1.604              1.232
 Vibration    20          0.744              1.528              1.068

                           ! Non-Optimized Parameters !
 Normal termination of Gaussian 16 at Wed Oct 30 13:23:56 2019.
