 Gaussian 16, Revision A.03,
 Gaussian 16:  ES64L-G16RevA.03 25-Dec-2016

 ----------------------------------------------------------------------
 #p opt=(ts,calcfc,noeigen,restart) freq b3lyp/gen em=gd3bj scrf=(smd,s
 olvent=benzene)
 ----------------------------------------------------------------------

 SCF Done:  E(RB3LYP) =  -1042.92999258     A.U. after    9 cycles

  Exact polarizability:   0.000   0.000   0.000   0.000   0.000   0.000
 Approx polarizability: 242.820  -0.294 228.409  -0.341   0.396 206.717

 SCF Done:  E(RB3LYP) =  -1042.93023414     A.U. after   10 cycles
 SCF Done:  E(RB3LYP) =  -1042.93026858     A.U. after   10 cycles
 SCF Done:  E(RB3LYP) =  -1042.93026883     A.U. after    8 cycles
 SCF Done:  E(RB3LYP) =  -1042.93026902     A.U. after    7 cycles
 SCF Done:  E(RB3LYP) =  -1042.93026796     A.U. after    8 cycles
 SCF Done:  E(RB3LYP) =  -1042.93026820     A.U. after    7 cycles
 SCF Done:  E(RB3LYP) =  -1042.93026812     A.U. after    7 cycles
 SCF Done:  E(RB3LYP) =  -1042.93026804     A.U. after    6 cycles
 Optimization completed.
    -- Stationary point found.

                         Standard orientation:
 ---------------------------------------------------------------------
 Center     Atomic      Atomic             Coordinates (Angstroms)
 Number     Number       Type             X           Y           Z
 ---------------------------------------------------------------------
      1         78           0       -0.000993    0.870247    0.007971
      2         15           0        1.845437   -0.558753    0.005296
      3         15           0       -1.853074   -0.551588    0.006902
      4          6           0        2.994859   -0.270020    1.414019
      5          1           0        2.475525   -0.476682    2.355533
      6          1           0        3.885597   -0.905515    1.346540
      7          1           0        3.296081    0.781596    1.417895
      8          6           0        1.676547   -2.396324    0.033084
      9          1           0        1.072874   -2.724373   -0.819370
     10          1           0        2.656429   -2.884882   -0.021064
     11          1           0        1.178429   -2.708354    0.955664
     12          6           0        2.929855   -0.309767   -1.461712
     13          1           0        3.221637    0.743106   -1.515072
     14          1           0        3.827960   -0.936457   -1.411884
     15          1           0        2.371776   -0.552520   -2.371977
     16          6           0       -3.361340    0.190037    0.756361
     17          1           0       -3.609143    1.111735    0.222051
     18          1           0       -4.214598   -0.497253    0.718534
     19          1           0       -3.153123    0.451085    1.799029
     20          6           0       -1.792326   -2.187824    0.858814
     21          1           0       -2.779434   -2.664486    0.866309
     22          1           0       -1.086775   -2.851252    0.352382
     23          1           0       -1.457805   -2.048974    1.892127
     24          6           0       -2.432440   -1.015367   -1.679422
     25          1           0       -1.646717   -1.576933   -2.195398
     26          1           0       -3.343976   -1.623258   -1.641819
     27          1           0       -2.629194   -0.103870   -2.252313
     28          1           0       -1.053437    2.104286   -0.008617
     29          1           0        1.088999    2.074447   -0.020107
 ---------------------------------------------------------------------

 The electronic state is 1-A.
 Alpha  occ. eigenvalues --  -77.09032 -77.09015 -10.17749 -10.17629 -10.17465
 Alpha  occ. eigenvalues --  -10.17204 -10.17197 -10.17012  -6.56861  -6.56853
 Alpha  occ. eigenvalues --   -4.73052  -4.73043  -4.73034  -4.73027  -4.72715
 Alpha  occ. eigenvalues --   -4.72705  -3.89204  -2.14586  -2.14207  -2.11127
 Alpha  occ. eigenvalues --   -0.76968  -0.76642  -0.69669  -0.69237  -0.69075
 Alpha  occ. eigenvalues --   -0.68989  -0.55082  -0.54254  -0.45158  -0.43890
 Alpha  occ. eigenvalues --   -0.43131  -0.42892  -0.42763  -0.42579  -0.40796
 Alpha  occ. eigenvalues --   -0.40272  -0.40208  -0.39794  -0.38763  -0.38671
 Alpha  occ. eigenvalues --   -0.36694  -0.36193  -0.34241  -0.33740  -0.33706
 Alpha  occ. eigenvalues --   -0.33129  -0.27204  -0.24417  -0.23777  -0.23494
 Alpha  occ. eigenvalues --   -0.23214  -0.20677
 Alpha virt. eigenvalues --   -0.00955   0.00240   0.02250   0.04703   0.05758
 Alpha virt. eigenvalues --    0.07644   0.08159   0.08650   0.09032   0.09859
 Alpha virt. eigenvalues --    0.09988   0.11197   0.11946   0.12296   0.12862

 Mulliken charges:
               1
     1  Pt  -0.910880
     2  P    0.656404
     3  P    0.666018
     4  C   -0.649038
     5  H    0.204537
     6  H    0.173835
     7  H    0.218392
     8  C   -0.655225
     9  H    0.191858
    10  H    0.179947
    11  H    0.195230
    12  C   -0.648512
    13  H    0.218635
    14  H    0.173951
    15  H    0.203985
    16  C   -0.646211
    17  H    0.215252
    18  H    0.169874
    19  H    0.208981
    20  C   -0.654052
    21  H    0.179069
    22  H    0.185948
    23  H    0.202645
    24  C   -0.652024
    25  H    0.197784
    26  H    0.177085
    27  H    0.216360
    28  H   -0.008624
    29  H   -0.011224
 Sum of Mulliken charges =  -0.00000

 Dipole moment (field-independent basis, Debye):
    X=              0.0241    Y=             -7.4005    Z=             -0.0493  Tot=              7.4007
 Quadrupole moment (field-independent basis, Debye-Ang):
   XX=            -76.3183   YY=            -98.8660   ZZ=            -91.1864
   XY=             -0.0354   XZ=              0.1057   YZ=             -0.0169

 Normal termination of Gaussian 16 at Thu Oct 31 04:18:10 2019.
