 Gaussian 16, Revision A.03,
 Gaussian 16:  ES64L-G16RevA.03 25-Dec-2016

 --------------------------------------------------------
 #p scan b3lyp/genecp scrf=(smd,solvent=benzene) em=gd3bj
 --------------------------------------------------------

 -------------------
 Title Card Required
 -------------------
 Symbolic Z-matrix:
 Charge =  0 Multiplicity = 1

 SCF Done:  E(RB3LYP) =  -1042.90711058     A.U. after   12 cycles

 The electronic state is 1-A.
 Alpha  occ. eigenvalues --  -77.09515 -77.09493 -10.17471 -10.17361 -10.17273
 Alpha  occ. eigenvalues --  -10.17164 -10.17060 -10.17023  -6.57309  -6.57288
 Alpha  occ. eigenvalues --   -4.73486  -4.73478  -4.73467  -4.73456  -4.73199
 Alpha  occ. eigenvalues --   -4.73178  -3.89800  -2.15775  -2.14032  -2.11704
 Alpha  occ. eigenvalues --   -0.76759  -0.76539  -0.69082  -0.69052  -0.68909
 Alpha  occ. eigenvalues --   -0.68858  -0.55685  -0.53944  -0.44644  -0.43760
 Alpha  occ. eigenvalues --   -0.42624  -0.42538  -0.42509  -0.42391  -0.40197
 Alpha  occ. eigenvalues --   -0.40104  -0.40056  -0.39991  -0.38450  -0.38437
 Alpha  occ. eigenvalues --   -0.36490  -0.33934  -0.33899  -0.33454  -0.33330
 Alpha  occ. eigenvalues --   -0.33180  -0.26419  -0.25805  -0.25517  -0.24958
 Alpha  occ. eigenvalues --   -0.21553  -0.19687
 Alpha virt. eigenvalues --   -0.02300  -0.00365   0.02202   0.03819   0.05883
 Alpha virt. eigenvalues --    0.07063   0.07915   0.08744   0.09092   0.09427
 Alpha virt. eigenvalues --    0.10055   0.11333   0.12044   0.12464   0.12989

 Mulliken charges:
               1
     1  Pt  -0.915091
     2  P    0.708598
     3  P    0.715206
     4  C   -0.649785
     5  H    0.207167
     6  H    0.172686
     7  H    0.212127
     8  C   -0.655023
     9  H    0.214588
    10  H    0.177518
    11  H    0.205731
    12  C   -0.658473
    13  H    0.209432
    14  H    0.179079
    15  H    0.212946
    16  C   -0.650375
    17  H    0.211319
    18  H    0.171752
    19  H    0.209217
    20  C   -0.652638
    21  H    0.175410
    22  H    0.213062
    23  H    0.207219
    24  C   -0.659890
    25  H    0.212367
    26  H    0.180989
    27  H    0.208185
    28  H   -0.080991
    29  H   -0.082333
 Sum of Mulliken charges =  -0.00000

 Dipole moment (field-independent basis, Debye):
    X=              0.0138    Y=              0.0009    Z=              0.4155  Tot=              0.4157
 Quadrupole moment (field-independent basis, Debye-Ang):
   XX=            -65.1818   YY=            -98.1781   ZZ=            -90.9847
   XY=             -0.2975   XZ=             -0.3332   YZ=              0.0109

 SCF Done:  E(RB3LYP) =  -1042.89944834     A.U. after   10 cycles
 SCF Done:  E(RB3LYP) =  -1042.88986810     A.U. after   10 cycles
 SCF Done:  E(RB3LYP) =  -1042.87909693     A.U. after   10 cycles
 SCF Done:  E(RB3LYP) =  -1042.86755279     A.U. after   10 cycles
 SCF Done:  E(RB3LYP) =  -1042.85559753     A.U. after   11 cycles
 SCF Done:  E(RB3LYP) =  -1042.84336694     A.U. after   11 cycles
 SCF Done:  E(RB3LYP) =  -1042.83060191     A.U. after   12 cycles
 SCF Done:  E(RB3LYP) =  -1042.81649313     A.U. after   12 cycles
 SCF Done:  E(RB3LYP) =  -1042.79937829     A.U. after   12 cycles
 SCF Done:  E(RB3LYP) =  -1042.77680238     A.U. after   18 cycles
 SCF Done:  E(RB3LYP) =  -1042.83205190     A.U. after   14 cycles
 SCF Done:  E(RB3LYP) =  -1042.84691339     A.U. after   12 cycles
 SCF Done:  E(RB3LYP) =  -1042.86690945     A.U. after   12 cycles

                         Standard orientation:
 ---------------------------------------------------------------------
 Center     Atomic      Atomic             Coordinates (Angstroms)
 Number     Number       Type             X           Y           Z
 ---------------------------------------------------------------------
      1         78           0       -0.000008    0.021964    0.000015
      2         15           0        2.278800    0.022391   -0.000137
      3         15           0       -2.278825    0.022367    0.000035
      4          6           0        3.094510    1.670803   -0.150807
      5          1           0        2.778847    2.309962    0.680510
      6          1           0        4.188193    1.581536   -0.142447
      7          1           0        2.779185    2.148842   -1.084247
      8          6           0        3.095624   -0.670625    1.502562
      9          1           0        2.780445   -1.710177    1.641357
     10          1           0        4.189224   -0.632902    1.420391
     11          1           0        2.780803   -0.100896    2.383232
     12          6           0        3.095328   -0.932076   -1.352083
     13          1           0        2.779760   -0.532265   -2.321553
     14          1           0        4.188973   -0.879667   -1.278758
     15          1           0        2.780523   -1.979631   -1.299135
     16          6           0       -3.095757   -1.625260    0.152576
     17          1           0       -2.780802   -2.102392    1.086607
     18          1           0       -4.189373   -1.535226    0.144060
     19          1           0       -2.780520   -2.265651   -0.677955
     20          6           0       -3.094799    0.714276   -1.503618
     21          1           0       -4.188451    0.677222   -1.421809
     22          1           0       -2.778996    1.753520   -1.643295
     23          1           0       -2.779963    0.143535   -2.383625
     24          6           0       -3.094850    0.979061    1.350719
     25          1           0       -2.778942    2.026234    1.296833
     26          1           0       -4.188520    0.927692    1.277029
     27          1           0       -2.780061    0.579899    2.320708
     28          1           0        0.000012   -1.805133    0.290219
     29          1           0        0.000328   -1.806124   -0.283877
 ---------------------------------------------------------------------

 SCF Done:  E(RB3LYP) =  -1042.83168145     A.U. after   13 cycles
 Normal termination of Gaussian 16 at Wed Oct 30 14:53:23 2019.
