 Gaussian 16, Revision A.03,
 Gaussian 16:  ES64L-G16RevA.03 25-Dec-2016

 ------------------------------------------------------------------
 #p opt=(calcfc,ts,noeigen) M062X/genecp scrf=(smd,solvent=benzene)
 ------------------------------------------------------------------

 -------------------
 Title Card Required
 -------------------
 Symbolic Z-matrix:
 Charge =  0 Multiplicity = 1

 SCF Done:  E(RM062X) =  -1042.41905646     A.U. after   14 cycles

  Exact polarizability:   0.000   0.000   0.000   0.000   0.000   0.000
 Approx polarizability: 199.482  -1.591 178.686   0.101  -0.305 169.343

 SCF Done:  E(RM062X) =  -1042.42416626     A.U. after   13 cycles
 SCF Done:  E(RM062X) =  -1042.42501435     A.U. after   12 cycles
 SCF Done:  E(RM062X) =  -1042.42494942     A.U. after   12 cycles
 SCF Done:  E(RM062X) =  -1042.42505534     A.U. after   12 cycles
 SCF Done:  E(RM062X) =  -1042.42409776     A.U. after   13 cycles
 SCF Done:  E(RM062X) =  -1042.42481411     A.U. after   14 cycles
 SCF Done:  E(RM062X) =  -1042.42511352     A.U. after   12 cycles
 SCF Done:  E(RM062X) =  -1042.42521594     A.U. after   12 cycles
 SCF Done:  E(RM062X) =  -1042.42503520     A.U. after   13 cycles
 SCF Done:  E(RM062X) =  -1042.42524910     A.U. after   13 cycles
 SCF Done:  E(RM062X) =  -1042.42535514     A.U. after   12 cycles
 SCF Done:  E(RM062X) =  -1042.42535742     A.U. after   10 cycles
 SCF Done:  E(RM062X) =  -1042.42535365     A.U. after   11 cycles
 SCF Done:  E(RM062X) =  -1042.42535723     A.U. after   11 cycles
 SCF Done:  E(RM062X) =  -1042.42535733     A.U. after    8 cycles
 SCF Done:  E(RM062X) =  -1042.42535703     A.U. after    9 cycles
 SCF Done:  E(RM062X) =  -1042.42535731     A.U. after    9 cycles
 SCF Done:  E(RM062X) =  -1042.42535736     A.U. after    8 cycles
 SCF Done:  E(RM062X) =  -1042.42535738     A.U. after    7 cycles
 Optimization completed.
    -- Stationary point found.

                         Standard orientation:
 ---------------------------------------------------------------------
 Center     Atomic      Atomic             Coordinates (Angstroms)
 Number     Number       Type             X           Y           Z
 ---------------------------------------------------------------------
      1         78           0        0.000694   -0.706298   -0.002624
      2         15           0        1.975867    0.394747    0.003109
      3         15           0       -1.971030    0.400077   -0.008027
      4          6           0        2.157835    1.659268    1.328297
      5          1           0        2.098532    1.171961    2.306296
      6          1           0        3.111161    2.194270    1.250522
      7          1           0        1.333553    2.375627    1.257053
      8          6           0        3.599432   -0.468472    0.148237
      9          1           0        3.701007   -1.181519   -0.675853
     10          1           0        4.443185    0.231049    0.126412
     11          1           0        3.624173   -1.032204    1.086091
     12          6           0        2.272002    1.410294   -1.502423
     13          1           0        1.436708    2.103846   -1.638739
     14          1           0        3.207663    1.976372   -1.430701
     15          1           0        2.314414    0.756282   -2.378650
     16          6           0       -2.521177    0.987522    1.646582
     17          1           0       -1.732378    1.600831    2.092595
     18          1           0       -3.443242    1.575807    1.578253
     19          1           0       -2.691349    0.126929    2.300318
     20          6           0       -3.522141   -0.381048   -0.626758
     21          1           0       -4.379128    0.299725   -0.565601
     22          1           0       -3.381413   -0.687051   -1.668183
     23          1           0       -3.730587   -1.279019   -0.037012
     24          6           0       -1.995336    1.973976   -0.962718
     25          1           0       -1.742768    1.769376   -2.007774
     26          1           0       -2.975163    2.463269   -0.918946
     27          1           0       -1.237409    2.650485   -0.555486
     28          1           0       -0.435430   -2.514924   -0.025710
     29          1           0        0.408111   -2.521507   -0.003739
 ---------------------------------------------------------------------

 The electronic state is 1-A.
 Alpha  occ. eigenvalues --  -78.04466 -78.04424 -10.52675 -10.52659 -10.52642
 Alpha  occ. eigenvalues --  -10.52627 -10.52411 -10.52354  -6.85908  -6.85866
 Alpha  occ. eigenvalues --   -4.97289  -4.97264  -4.97246  -4.97222  -4.97081
 Alpha  occ. eigenvalues --   -4.97039  -4.02095  -2.23837  -2.23434  -2.21599
 Alpha  occ. eigenvalues --   -0.85399  -0.85197  -0.77397  -0.77314  -0.77216
 Alpha  occ. eigenvalues --   -0.77118  -0.61789  -0.60787  -0.53598  -0.50439
 Alpha  occ. eigenvalues --   -0.49997  -0.48914  -0.48533  -0.48495  -0.48406
 Alpha  occ. eigenvalues --   -0.46063  -0.45819  -0.45758  -0.45620  -0.44154
 Alpha  occ. eigenvalues --   -0.44095  -0.39495  -0.38605  -0.38356  -0.38149
 Alpha  occ. eigenvalues --   -0.37739  -0.36347  -0.28898  -0.28504  -0.26481
 Alpha  occ. eigenvalues --   -0.24544  -0.22592
 Alpha virt. eigenvalues --    0.00839   0.01085   0.04935   0.05627   0.09345
 Alpha virt. eigenvalues --    0.09882   0.10873   0.11474   0.12290   0.12583
 Alpha virt. eigenvalues --    0.12899   0.13843   0.15226   0.15873   0.16429

 Mulliken charges:
               1
     1  Pt  -0.634121
     2  P    0.482718
     3  P    0.482673
     4  C   -0.675802
     5  H    0.217725
     6  H    0.184712
     7  H    0.210986
     8  C   -0.677877
     9  H    0.211898
    10  H    0.178570
    11  H    0.212021
    12  C   -0.675168
    13  H    0.213754
    14  H    0.184669
    15  H    0.218834
    16  C   -0.676703
    17  H    0.216320
    18  H    0.185282
    19  H    0.218594
    20  C   -0.677751
    21  H    0.179424
    22  H    0.214069
    23  H    0.212052
    24  C   -0.674394
    25  H    0.216421
    26  H    0.183528
    27  H    0.207413
    28  H    0.029001
    29  H    0.031149
 Sum of Mulliken charges =  -0.00000

 Dipole moment (field-independent basis, Debye):
    X=             -0.0478    Y=              2.8838    Z=              0.0514  Tot=              2.8847
 Quadrupole moment (field-independent basis, Debye-Ang):
   XX=            -80.6117   YY=            -92.3297   ZZ=            -92.2857
   XY=              0.0687   XZ=             -0.1782   YZ=             -0.0180

 Normal termination of Gaussian 16 at Fri Nov  1 07:19:00 2019.
