 Gaussian 16, Revision A.03,
 Gaussian 16:  ES64L-G16RevA.03 25-Dec-2016

 ----------------------------------------------------------------------
 #p opt=(calcfc,ts,noeigen) freq M062X/genecp geom=allcheck scrf=(smd,s
 olvent=benzene)
 ----------------------------------------------------------------------

 Structure from the checkpoint file:  "Pt_tsb.chk"
 -------------------
 Title Card Required
 -------------------
 Charge =  0 Multiplicity = 1

 SCF Done:  E(RM062X) =  -1042.42535738     A.U. after   14 cycles
 Optimization completed.
    -- Stationary point found.
 Normal termination of Gaussian 16 at Fri Nov  1 08:14:58 2019.

 ------------------------------------------------------------------
 #P Geom=AllCheck Guess=TCheck SCRF=Check GenChk RM062X/GenECP Freq
 ------------------------------------------------------------------

 Structure from the checkpoint file:  "Pt_tsb.chk"
 -------------------
 Title Card Required
 -------------------
 Charge =  0 Multiplicity = 1

                         Standard orientation:
 ---------------------------------------------------------------------
 Center     Atomic      Atomic             Coordinates (Angstroms)
 Number     Number       Type             X           Y           Z
 ---------------------------------------------------------------------
      1         78           0        0.000694   -0.706298   -0.002624
      2         15           0        1.975867    0.394747    0.003109
      3         15           0       -1.971030    0.400077   -0.008027
      4          6           0        2.157835    1.659268    1.328297
      5          1           0        2.098532    1.171961    2.306296
      6          1           0        3.111161    2.194270    1.250522
      7          1           0        1.333553    2.375627    1.257053
      8          6           0        3.599432   -0.468472    0.148237
      9          1           0        3.701007   -1.181519   -0.675853
     10          1           0        4.443185    0.231049    0.126412
     11          1           0        3.624173   -1.032204    1.086091
     12          6           0        2.272002    1.410294   -1.502423
     13          1           0        1.436708    2.103846   -1.638739
     14          1           0        3.207663    1.976372   -1.430701
     15          1           0        2.314414    0.756282   -2.378650
     16          6           0       -2.521177    0.987522    1.646582
     17          1           0       -1.732378    1.600831    2.092595
     18          1           0       -3.443242    1.575807    1.578253
     19          1           0       -2.691349    0.126929    2.300318
     20          6           0       -3.522141   -0.381048   -0.626758
     21          1           0       -4.379128    0.299725   -0.565601
     22          1           0       -3.381413   -0.687051   -1.668183
     23          1           0       -3.730587   -1.279019   -0.037012
     24          6           0       -1.995336    1.973976   -0.962718
     25          1           0       -1.742768    1.769376   -2.007774
     26          1           0       -2.975163    2.463269   -0.918946
     27          1           0       -1.237409    2.650485   -0.555486
     28          1           0       -0.435430   -2.514924   -0.025710
     29          1           0        0.408111   -2.521507   -0.003739
 ---------------------------------------------------------------------

 SCF Done:  E(RM062X) =  -1042.42535738     A.U. after    1 cycles

 The electronic state is 1-A.
 Alpha  occ. eigenvalues --  -78.04466 -78.04424 -10.52675 -10.52659 -10.52642
 Alpha  occ. eigenvalues --  -10.52627 -10.52411 -10.52354  -6.85908  -6.85866
 Alpha  occ. eigenvalues --   -4.97289  -4.97264  -4.97246  -4.97222  -4.97081
 Alpha  occ. eigenvalues --   -4.97039  -4.02095  -2.23837  -2.23434  -2.21599
 Alpha  occ. eigenvalues --   -0.85399  -0.85197  -0.77397  -0.77314  -0.77216
 Alpha  occ. eigenvalues --   -0.77118  -0.61789  -0.60787  -0.53598  -0.50439
 Alpha  occ. eigenvalues --   -0.49997  -0.48914  -0.48533  -0.48495  -0.48406
 Alpha  occ. eigenvalues --   -0.46063  -0.45819  -0.45758  -0.45620  -0.44154
 Alpha  occ. eigenvalues --   -0.44095  -0.39495  -0.38605  -0.38356  -0.38149
 Alpha  occ. eigenvalues --   -0.37739  -0.36347  -0.28898  -0.28504  -0.26481
 Alpha  occ. eigenvalues --   -0.24544  -0.22592
 Alpha virt. eigenvalues --    0.00839   0.01085   0.04935   0.05627   0.09345
 Alpha virt. eigenvalues --    0.09882   0.10873   0.11474   0.12290   0.12583
 Alpha virt. eigenvalues --    0.12899   0.13843   0.15226   0.15873   0.16429

 Mulliken charges:
               1
     1  Pt  -0.634121
     2  P    0.482718
     3  P    0.482673
     4  C   -0.675802
     5  H    0.217725
     6  H    0.184712
     7  H    0.210986
     8  C   -0.677877
     9  H    0.211898
    10  H    0.178570
    11  H    0.212021
    12  C   -0.675168
    13  H    0.213753
    14  H    0.184669
    15  H    0.218834
    16  C   -0.676703
    17  H    0.216320
    18  H    0.185282
    19  H    0.218594
    20  C   -0.677751
    21  H    0.179424
    22  H    0.214069
    23  H    0.212052
    24  C   -0.674394
    25  H    0.216421
    26  H    0.183528
    27  H    0.207413
    28  H    0.029001
    29  H    0.031149
 Sum of Mulliken charges =  -0.00000

 Dipole moment (field-independent basis, Debye):
    X=             -0.0478    Y=              2.8838    Z=              0.0514  Tot=              2.8847
 Quadrupole moment (field-independent basis, Debye-Ang):
   XX=            -80.6117   YY=            -92.3297   ZZ=            -92.2857
   XY=              0.0687   XZ=             -0.1782   YZ=             -0.0180

  Exact polarizability: 218.716   0.097 177.009   0.489  -0.196 154.017
 Approx polarizability: 198.929   0.054 180.038   0.286  -0.118 167.345

 ******    1 imaginary frequencies (negative Signs) ******

                      1                      2                      3
                      A                      A                      A
 Frequencies --    -84.0297                15.0763                32.5396
 Red. masses --      5.3457                 3.3436                 2.8940
 Frc consts  --      0.0222                 0.0004                 0.0018
 IR Inten    --     32.3708                 0.5638                 0.0490

                      4                      5                      6
                      A                      A                      A
 Frequencies --     78.5984               119.2104               126.6710
 Red. masses --      2.5835                 2.1053                 3.0392
 Frc consts  --      0.0094                 0.0176                 0.0287
 IR Inten    --      3.2913                 0.5041                 0.3427

                      7                      8                      9
                      A                      A                      A
 Frequencies --    135.8547               188.5955               189.0033
 Red. masses --      2.7979                 3.1606                 1.1987
 Frc consts  --      0.0304                 0.0662                 0.0252
 IR Inten    --      1.4338                 7.3606                 0.7283

                     10                     11                     12
                      A                      A                      A
 Frequencies --    192.0148               194.8817               227.0752
 Red. masses --      1.3359                 1.8079                 1.1203
 Frc consts  --      0.0290                 0.0405                 0.0340
 IR Inten    --      0.2001                 0.3616                 0.3362

                     13                     14                     15
                      A                      A                      A
 Frequencies --    229.8495               233.8803               240.9628
 Red. masses --      1.1397                 1.1742                 1.1868
 Frc consts  --      0.0355                 0.0378                 0.0406
 IR Inten    --      0.2711                 0.1098                 0.0877

                     16                     17                     18
                      A                      A                      A
 Frequencies --    251.8633               255.6284               263.4059
 Red. masses --      2.0040                 2.0392                 1.5234
 Frc consts  --      0.0749                 0.0785                 0.0623
 IR Inten    --      5.9098                 1.3662                 0.1055

                     19                     20                     21
                      A                      A                      A
 Frequencies --    266.8274               289.9608               307.6980
 Red. masses --      1.8091                 1.5848                 1.5815
 Frc consts  --      0.0759                 0.0785                 0.0882
 IR Inten    --      0.2858                 8.2445                94.2479

                     22                     23                     24
                      A                      A                      A
 Frequencies --    355.4258               359.5091               495.9629
 Red. masses --      3.0520                 1.7420                 1.1964
 Frc consts  --      0.2272                 0.1327                 0.1734
 IR Inten    --     17.6726                 3.1689                34.1210

                     25                     26                     27
                      A                      A                      A
 Frequencies --    653.1243               680.5953               693.6394
 Red. masses --      1.0151                 4.1013                 3.8400
 Frc consts  --      0.2551                 1.1193                 1.0886
 IR Inten    --      0.0233                64.6906                 3.7051

                     28                     29                     30
                      A                      A                      A
 Frequencies --    728.9317               732.8143               738.0763
 Red. masses --      3.9448                 3.8301                 3.9490
 Frc consts  --      1.2349                 1.2118                 1.2675
 IR Inten    --     22.3650                22.0727                 0.6682

                     31                     32                     33
                      A                      A                      A
 Frequencies --    739.2208               806.9305               809.7288
 Red. masses --      3.9413                 1.1605                 1.1602
 Frc consts  --      1.2689                 0.4452                 0.4482
 IR Inten    --     27.6903                 0.0380                 0.0126

                     34                     35                     36
                      A                      A                      A
 Frequencies --    872.2402               874.8487               875.3701
 Red. masses --      1.2352                 1.2412                 1.2463
 Frc consts  --      0.5537                 0.5597                 0.5627
 IR Inten    --      0.0977                 5.6573                 0.9012

                     37                     38                     39
                      A                      A                      A
 Frequencies --    889.6889               972.0943               974.7085
 Red. masses --      1.2655                 1.4205                 1.3734
 Frc consts  --      0.5902                 0.7909                 0.7688
 IR Inten    --      3.3591               407.3362                 1.6343

                     40                     41                     42
                      A                      A                      A
 Frequencies --    975.5108               977.1826               978.1538
 Red. masses --      1.3811                 1.3804                 1.3818
 Frc consts  --      0.7743                 0.7766                 0.7790
 IR Inten    --     24.6903                34.4939                41.7709

                     43                     44                     45
                      A                      A                      A
 Frequencies --    994.1855              1267.7065              1344.5922
 Red. masses --      1.4807                 1.0116                 1.2255
 Frc consts  --      0.8623                 0.9578                 1.3054
 IR Inten    --    102.4188                 0.1847                 7.6783

                     46                     47                     48
                      A                      A                      A
 Frequencies --   1344.7994              1345.8290              1346.9283
 Red. masses --      1.2264                 1.2243                 1.2257
 Frc consts  --      1.3068                 1.3065                 1.3101
 IR Inten    --      7.9558                23.7452                23.2482

                     49                     50                     51
                      A                      A                      A
 Frequencies --   1365.7938              1368.4031              1479.9252
 Red. masses --      1.2120                 1.2104                 1.0538
 Frc consts  --      1.3320                 1.3354                 1.3599
 IR Inten    --      5.7304                 2.9466                 0.0568

                     52                     53                     54
                      A                      A                      A
 Frequencies --   1480.6527              1486.4921              1487.2708
 Red. masses --      1.0541                 1.0497                 1.0498
 Frc consts  --      1.3615                 1.3667                 1.3681
 IR Inten    --      0.2902                 0.9321                 0.0143

                     55                     56                     57
                      A                      A                      A
 Frequencies --   1488.0397              1489.4040              1494.3632
 Red. masses --      1.0505                 1.0495                 1.0492
 Frc consts  --      1.3705                 1.3717                 1.3804
 IR Inten    --      1.4146                 0.5330                12.1632

                     58                     59                     60
                      A                      A                      A
 Frequencies --   1494.7214              1496.7535              1497.7201
 Red. masses --      1.0492                 1.0499                 1.0496
 Frc consts  --      1.3811                 1.3858                 1.3872
 IR Inten    --     10.3537                16.8460                16.3619

                     61                     62                     63
                      A                      A                      A
 Frequencies --   1507.7666              1509.0687              2931.5667
 Red. masses --      1.0453                 1.0449                 1.0086
 Frc consts  --      1.4001                 1.4020                 5.1070
 IR Inten    --      7.8519                 2.3634               566.9617

                     64                     65                     66
                      A                      A                      A
 Frequencies --   3073.1247              3073.8075              3075.1497
 Red. masses --      1.0346                 1.0342                 1.0342
 Frc consts  --      5.7567                 5.7571                 5.7625
 IR Inten    --     38.2670                13.5732                 9.8521

                     67                     68                     69
                      A                      A                      A
 Frequencies --   3076.4189              3077.4269              3077.5666
 Red. masses --      1.0343                 1.0344                 1.0344
 Frc consts  --      5.7676                 5.7719                 5.7722
 IR Inten    --     21.5702                 3.6415                13.1644

                     70                     71                     72
                      A                      A                      A
 Frequencies --   3161.4419              3162.2908              3162.4885
 Red. masses --      1.1035                 1.1037                 1.1029
 Frc consts  --      6.4981                 6.5029                 6.4992
 IR Inten    --      1.7391                 8.1969                50.6020

                     73                     74                     75
                      A                      A                      A
 Frequencies --   3164.4779              3165.4067              3165.8953
 Red. masses --      1.1034                 1.1029                 1.1031
 Frc consts  --      6.5103                 6.5112                 6.5140
 IR Inten    --     16.2788                29.3474                12.1433

                     76                     77                     78
                      A                      A                      A
 Frequencies --   3173.7941              3174.2660              3174.5061
 Red. masses --      1.1032                 1.1032                 1.1031
 Frc consts  --      6.5470                 6.5495                 6.5496
 IR Inten    --      6.2615                 8.4337                 2.2204

                     79                     80                     81
                      A                      A                      A
 Frequencies --   3175.9010              3177.2616              3177.4884
 Red. masses --      1.1029                 1.1029                 1.1031
 Frc consts  --      6.5545                 6.5600                 6.5619
 IR Inten    --      3.5825                 4.8353                 4.3894

 - Thermochemistry -
 -------------------
 Temperature   298.150 Kelvin.  Pressure   1.00000 Atm.
 Atom     1 has atomic number 78 and mass 194.96480

 Molecular mass:   349.06883 amu.
 Principal axes and moments of inertia in atomic units:
                           1         2         3
     Eigenvalues --  1501.791363883.330014398.26468
           X            1.00000   0.00017  -0.00016
           Y           -0.00017   1.00000  -0.00031
           Z            0.00016   0.00031   1.00000
 This molecule is an asymmetric top.
 Rotational symmetry number  1.
 Warning -- assumption of classical behavior for rotation
           may cause significant error
 Rotational temperatures (Kelvin)      0.05767     0.02230     0.01969
 Rotational constants (GHZ):           1.20173     0.46474     0.41033
    1 imaginary frequencies ignored.
 Zero-point vibrational energy     644392.7 (Joules/Mol)
                                  154.01356 (Kcal/Mol)
 Warning -- explicit consideration of  23 degrees of freedom as
           vibrations may cause significant error
 Vibrational temperatures:     21.69    46.82   113.09   171.52   182.25
          (Kelvin)            195.46   271.35   271.93   276.27   280.39
                              326.71   330.70   336.50   346.69   362.38
                              367.79   378.98   383.91   417.19   442.71
                              511.38   517.25   713.58   939.70   979.22
                              997.99  1048.77  1054.36  1061.93  1063.57
                             1160.99  1165.02  1254.96  1258.71  1259.46
                             1280.06  1398.63  1402.39  1403.54  1405.95
                             1407.35  1430.41  1823.95  1934.57  1934.87
                             1936.35  1937.93  1965.07  1968.83  2129.28
                             2130.33  2138.73  2139.85  2140.96  2142.92
                             2150.06  2150.57  2153.49  2154.89  2169.34
                             2171.21  4217.87  4421.54  4422.52  4424.45
                             4426.28  4427.73  4427.93  4548.61  4549.83
                             4550.12  4552.98  4554.31  4555.02  4566.38
                             4567.06  4567.41  4569.41  4571.37  4571.70

 Zero-point correction=                           0.245436 (Hartree/Particle)
 Thermal correction to Energy=                    0.262414
 Thermal correction to Enthalpy=                  0.263358
 Thermal correction to Gibbs Free Energy=         0.199891
 Sum of electronic and zero-point Energies=          -1042.179921
 Sum of electronic and thermal Energies=             -1042.162943
 Sum of electronic and thermal Enthalpies=           -1042.161999
 Sum of electronic and thermal Free Energies=        -1042.225466

                     E (Thermal)             CV                S
                      KCal/Mol        Cal/Mol-Kelvin    Cal/Mol-Kelvin
 Total                  164.667             60.286            133.577
 Electronic               0.000              0.000              0.000
 Translational            0.889              2.981             43.444
 Rotational               0.889              2.981             31.617
 Vibrational            162.890             54.325             58.515
 Vibration     1          0.593              1.986              7.195
 Vibration     2          0.594              1.983              5.668
 Vibration     3          0.600              1.964              3.926
 Vibration     4          0.609              1.933              3.113
 Vibration     5          0.611              1.926              2.996
 Vibration     6          0.614              1.918              2.861
 Vibration     7          0.633              1.856              2.242
 Vibration     8          0.633              1.855              2.238
 Vibration     9          0.634              1.851              2.208
 Vibration    10          0.636              1.847              2.181
 Vibration    11          0.651              1.800              1.902
 Vibration    12          0.652              1.795              1.880
 Vibration    13          0.654              1.789              1.849
 Vibration    14          0.658              1.778              1.796
 Vibration    15          0.664              1.760              1.718
 Vibration    16          0.666              1.753              1.691
 Vibration    17          0.670              1.740              1.639
 Vibration    18          0.672              1.734              1.617
 Vibration    19          0.686              1.692              1.474
 Vibration    20          0.698              1.659              1.375
 Vibration    21          0.731              1.564              1.142
 Vibration    22          0.734              1.556              1.124
 Vibration    23          0.852              1.259              0.668

 Optimization completed.
    -- Stationary point found.
 Normal termination of Gaussian 16 at Fri Nov  1 08:28:02 2019.
