 Gaussian 16, Revision A.03,
 Gaussian 16:  ES64L-G16RevA.03 25-Dec-2016

 -------------------------------------------------------------
 #p B2PLYPD3/def2TZVP geom=allcheck scrf=(smd,solvent=benzene)
 -------------------------------------------------------------

 Structure from the checkpoint file:  "Pt_tsb.chk"
 -------------------
 Title Card Required
 -------------------
 Charge =  0 Multiplicity = 1

                         Standard orientation:
 ---------------------------------------------------------------------
 Center     Atomic      Atomic             Coordinates (Angstroms)
 Number     Number       Type             X           Y           Z
 ---------------------------------------------------------------------
      1         78           0        0.000694   -0.706298   -0.002624
      2         15           0        1.975867    0.394747    0.003109
      3         15           0       -1.971030    0.400077   -0.008027
      4          6           0        2.157835    1.659268    1.328297
      5          1           0        2.098532    1.171961    2.306296
      6          1           0        3.111161    2.194270    1.250522
      7          1           0        1.333553    2.375627    1.257053
      8          6           0        3.599432   -0.468472    0.148237
      9          1           0        3.701007   -1.181519   -0.675853
     10          1           0        4.443185    0.231049    0.126412
     11          1           0        3.624173   -1.032204    1.086091
     12          6           0        2.272002    1.410294   -1.502423
     13          1           0        1.436708    2.103846   -1.638739
     14          1           0        3.207663    1.976372   -1.430701
     15          1           0        2.314414    0.756282   -2.378650
     16          6           0       -2.521177    0.987522    1.646582
     17          1           0       -1.732378    1.600831    2.092595
     18          1           0       -3.443242    1.575807    1.578253
     19          1           0       -2.691349    0.126929    2.300318
     20          6           0       -3.522141   -0.381048   -0.626758
     21          1           0       -4.379128    0.299725   -0.565601
     22          1           0       -3.381413   -0.687051   -1.668183
     23          1           0       -3.730587   -1.279019   -0.037012
     24          6           0       -1.995336    1.973976   -0.962718
     25          1           0       -1.742768    1.769376   -2.007774
     26          1           0       -2.975163    2.463269   -0.918946
     27          1           0       -1.237409    2.650485   -0.555486
     28          1           0       -0.435430   -2.514924   -0.025710
     29          1           0        0.408111   -2.521507   -0.003739
 ---------------------------------------------------------------------

 SCF Done:  E(RB2PLYPD3) =  -1041.64060420     A.U. after   12 cycles
 E2(B2PLYPD3) =    -0.6247219802D+00 E(B2PLYPD3) =    -0.10422653261829D+04

 The electronic state is 1-A.
 Alpha  occ. eigenvalues --  -78.27135 -78.27104 -10.59970 -10.59958 -10.59936
 Alpha  occ. eigenvalues --  -10.59924 -10.59725 -10.59672  -6.93614  -6.93582
 Alpha  occ. eigenvalues --   -4.98779  -4.98752  -4.98746  -4.98721  -4.98533
 Alpha  occ. eigenvalues --   -4.98501  -4.08442  -2.27505  -2.27113  -2.25558
 Alpha  occ. eigenvalues --   -0.86863  -0.86667  -0.78759  -0.78678  -0.78572
 Alpha  occ. eigenvalues --   -0.78480  -0.62048  -0.61079  -0.53569  -0.50450
 Alpha  occ. eigenvalues --   -0.50014  -0.48915  -0.48538  -0.48500  -0.48420
 Alpha  occ. eigenvalues --   -0.46137  -0.45888  -0.45825  -0.45687  -0.44264
 Alpha  occ. eigenvalues --   -0.44207  -0.38972  -0.38412  -0.38296  -0.38248
 Alpha  occ. eigenvalues --   -0.37692  -0.35872  -0.27865  -0.27540  -0.25410
 Alpha  occ. eigenvalues --   -0.23257  -0.21447
 Alpha virt. eigenvalues --    0.03252   0.06757   0.08762   0.09766   0.10803
 Alpha virt. eigenvalues --    0.11158   0.11943   0.12275   0.13003   0.13607
 Alpha virt. eigenvalues --    0.14101   0.14313   0.14659   0.14816   0.15725

 Mulliken charges:
               1
     1  Pt  -0.173483
     2  P    0.220672
     3  P    0.217404
     4  C   -0.424629
     5  H    0.136485
     6  H    0.124586
     7  H    0.127710
     8  C   -0.425890
     9  H    0.131683
    10  H    0.116294
    11  H    0.131840
    12  C   -0.426336
    13  H    0.132170
    14  H    0.123063
    15  H    0.136376
    16  C   -0.430904
    17  H    0.134032
    18  H    0.122756
    19  H    0.136862
    20  C   -0.426514
    21  H    0.117146
    22  H    0.132991
    23  H    0.130961
    24  C   -0.426451
    25  H    0.136467
    26  H    0.125497
    27  H    0.126872
    28  H   -0.015276
    29  H   -0.012383
 Sum of Mulliken charges =  -0.00000

 Dipole moment (field-independent basis, Debye):
    X=             -0.0450    Y=              2.5659    Z=              0.0481  Tot=              2.5667
 Quadrupole moment (field-independent basis, Debye-Ang):
   XX=            -84.1606   YY=            -93.9805   ZZ=            -93.5117
   XY=              0.0710   XZ=             -0.1753   YZ=             -0.0186

 Normal termination of Gaussian 16 at Wed Nov  6 10:35:30 2019.
