 Gaussian 16, Revision A.03,
 Gaussian 16:  ES64L-G16RevA.03 25-Dec-2016

 ----------------------------------------------------------------------
 #p opt=(calcall,ts,noeigen) b3lyp/genecp scrf=(smd,solvent=benzene) em
 =gd3bj
 ----------------------------------------------------------------------

 -------------------
 Title Card Required
 -------------------
 Symbolic Z-matrix:
 Charge =  0 Multiplicity = 1

 SCF Done:  E(RB3LYP) =  -1042.93026804     A.U. after   12 cycles

 The electronic state is 1-A.
 Alpha  occ. eigenvalues --  -77.09032 -77.09015 -10.17749 -10.17629 -10.17465
 Alpha  occ. eigenvalues --  -10.17204 -10.17197 -10.17012  -6.56861  -6.56853
 Alpha  occ. eigenvalues --   -4.73052  -4.73043  -4.73034  -4.73027  -4.72715
 Alpha  occ. eigenvalues --   -4.72705  -3.89204  -2.14586  -2.14207  -2.11127
 Alpha  occ. eigenvalues --   -0.76968  -0.76642  -0.69669  -0.69237  -0.69075
 Alpha  occ. eigenvalues --   -0.68989  -0.55082  -0.54254  -0.45158  -0.43890
 Alpha  occ. eigenvalues --   -0.43131  -0.42892  -0.42763  -0.42579  -0.40796
 Alpha  occ. eigenvalues --   -0.40272  -0.40208  -0.39794  -0.38763  -0.38671
 Alpha  occ. eigenvalues --   -0.36694  -0.36193  -0.34241  -0.33740  -0.33706
 Alpha  occ. eigenvalues --   -0.33129  -0.27204  -0.24417  -0.23777  -0.23494
 Alpha  occ. eigenvalues --   -0.23214  -0.20677
 Alpha virt. eigenvalues --   -0.00955   0.00240   0.02250   0.04703   0.05758
 Alpha virt. eigenvalues --    0.07644   0.08159   0.08650   0.09032   0.09859
 Alpha virt. eigenvalues --    0.09988   0.11197   0.11946   0.12296   0.12862

 Mulliken charges:
               1
     1  Pt  -0.910880
     2  P    0.656404
     3  P    0.666018
     4  C   -0.649038
     5  H    0.204537
     6  H    0.173835
     7  H    0.218392
     8  C   -0.655225
     9  H    0.191858
    10  H    0.179947
    11  H    0.195230
    12  C   -0.648512
    13  H    0.218635
    14  H    0.173951
    15  H    0.203985
    16  C   -0.646211
    17  H    0.215252
    18  H    0.169874
    19  H    0.208981
    20  C   -0.654052
    21  H    0.179069
    22  H    0.185948
    23  H    0.202645
    24  C   -0.652024
    25  H    0.197784
    26  H    0.177085
    27  H    0.216360
    28  H   -0.008624
    29  H   -0.011224
 Sum of Mulliken charges =  -0.00000

 Dipole moment (field-independent basis, Debye):
    X=              0.0241    Y=              7.4005    Z=              0.0493  Tot=              7.4007
 Quadrupole moment (field-independent basis, Debye-Ang):
   XX=            -76.3183   YY=            -98.8660   ZZ=            -91.1864
   XY=              0.0354   XZ=             -0.1057   YZ=             -0.0169

  Exact polarizability: 211.772   0.440 180.037   0.588  -0.192 152.813
 Approx polarizability: 243.288   0.299 227.921   0.426   0.032 206.788

 Optimization completed.
    -- Stationary point found.

                         Standard orientation:
 ---------------------------------------------------------------------
 Center     Atomic      Atomic             Coordinates (Angstroms)
 Number     Number       Type             X           Y           Z
 ---------------------------------------------------------------------
      1         78           0       -0.000993   -0.870247   -0.007971
      2         15           0        1.845437    0.558753   -0.005296
      3         15           0       -1.853074    0.551588   -0.006902
      4          6           0        2.994859    0.270020   -1.414019
      5          1           0        2.475525    0.476682   -2.355533
      6          1           0        3.885597    0.905515   -1.346540
      7          1           0        3.296081   -0.781596   -1.417895
      8          6           0        1.676547    2.396324   -0.033084
      9          1           0        1.072874    2.724373    0.819370
     10          1           0        2.656429    2.884882    0.021064
     11          1           0        1.178429    2.708354   -0.955664
     12          6           0        2.929855    0.309767    1.461712
     13          1           0        3.221637   -0.743106    1.515072
     14          1           0        3.827960    0.936457    1.411884
     15          1           0        2.371776    0.552520    2.371977
     16          6           0       -3.361340   -0.190037   -0.756361
     17          1           0       -3.609143   -1.111735   -0.222051
     18          1           0       -4.214598    0.497253   -0.718534
     19          1           0       -3.153123   -0.451085   -1.799029
     20          6           0       -1.792326    2.187824   -0.858814
     21          1           0       -2.779434    2.664486   -0.866309
     22          1           0       -1.086775    2.851252   -0.352382
     23          1           0       -1.457805    2.048974   -1.892127
     24          6           0       -2.432440    1.015367    1.679422
     25          1           0       -1.646717    1.576933    2.195398
     26          1           0       -3.343976    1.623258    1.641819
     27          1           0       -2.629194    0.103870    2.252313
     28          1           0       -1.053437   -2.104286    0.008617
     29          1           0        1.088999   -2.074447    0.020107
 ---------------------------------------------------------------------

 ******    1 imaginary frequencies (negative Signs) ******

                      1                      2                      3
                      A                      A                      A
 Frequencies --    -15.1909                26.2289                93.6962
 Red. masses --      3.3406                 3.0141                 4.1979
 Frc consts  --      0.0005                 0.0012                 0.0217
 IR Inten    --      2.3552                 0.4931                 4.3483

                      4                      5                      6
                      A                      A                      A
 Frequencies --    123.8629               133.4906               144.7473
 Red. masses --      2.9566                 2.6652                 2.7625
 Frc consts  --      0.0267                 0.0280                 0.0341
 IR Inten    --      0.1060                 3.8648                 2.6488

                      7                      8                      9
                      A                      A                      A
 Frequencies --    178.1311               186.5611               190.2371
 Red. masses --      2.4736                 1.1006                 1.3699
 Frc consts  --      0.0462                 0.0226                 0.0292
 IR Inten    --      0.7269                 0.3581                 0.0569

                     10                     11                     12
                      A                      A                      A
 Frequencies --    200.9758               208.0428               219.6897
 Red. masses --      3.2403                 1.4806                 1.2913
 Frc consts  --      0.0771                 0.0378                 0.0367
 IR Inten    --      0.1113                 0.4294                 0.1633

                     13                     14                     15
                      A                      A                      A
 Frequencies --    224.5408               229.8065               256.8642
 Red. masses --      1.0332                 1.2166                 2.0453
 Frc consts  --      0.0307                 0.0379                 0.0795
 IR Inten    --      0.0444                 0.7066                 1.7697

                     16                     17                     18
                      A                      A                      A
 Frequencies --    258.2528               261.6214               266.8980
 Red. masses --      2.4260                 1.8839                 2.6456
 Frc consts  --      0.0953                 0.0760                 0.1110
 IR Inten    --      1.3292                 0.1408                 3.4730

                     19                     20                     21
                      A                      A                      A
 Frequencies --    286.7682               345.8745               359.3953
 Red. masses --      1.3189                 3.7805                 3.0818
 Frc consts  --      0.0639                 0.2665                 0.2345
 IR Inten    --      0.1727                21.9969                 4.0957

                     22                     23                     24
                      A                      A                      A
 Frequencies --    542.8815               567.1414               634.5727
 Red. masses --      1.0895                 1.0402                 1.0823
 Frc consts  --      0.1892                 0.1971                 0.2568
 IR Inten    --      6.4304                 0.7230                29.2365

                     25                     26                     27
                      A                      A                      A
 Frequencies --    670.9867               676.1149               729.5913
 Red. masses --      3.9580                 4.0694                 3.9517
 Frc consts  --      1.0499                 1.0960                 1.2394
 IR Inten    --     16.8342                10.5413                26.3012

                     28                     29                     30
                      A                      A                      A
 Frequencies --    729.7043               735.5497               735.7852
 Red. masses --      3.7646                 3.9155                 3.8803
 Frc consts  --      1.1811                 1.2481                 1.2377
 IR Inten    --     15.9303                23.1320                 5.5066

                     31                     32                     33
                      A                      A                      A
 Frequencies --    817.6184               819.9848               872.3654
 Red. masses --      1.1632                 1.1600                 1.0819
 Frc consts  --      0.4581                 0.4595                 0.4851
 IR Inten    --      0.1736                 0.0830                32.7140

                     34                     35                     36
                      A                      A                      A
 Frequencies --    882.8003               886.2843               886.9284
 Red. masses --      1.2395                 1.1832                 1.2455
 Frc consts  --      0.5692                 0.5476                 0.5773
 IR Inten    --     29.6830                39.9646                 7.9334

                     37                     38                     39
                      A                      A                      A
 Frequencies --    892.8876               982.1836               983.7178
 Red. masses --      1.2492                 1.4054                 1.3799
 Frc consts  --      0.5868                 0.7988                 0.7868
 IR Inten    --     23.7040               162.0072                21.1900

                     40                     41                     42
                      A                      A                      A
 Frequencies --    985.2080               987.0299               988.3801
 Red. masses --      1.3748                 1.3887                 1.3879
 Frc consts  --      0.7862                 0.7971                 0.7988
 IR Inten    --     25.8051               115.6418               145.4298

                     43                     44                     45
                      A                      A                      A
 Frequencies --   1004.0206              1350.1337              1353.1103
 Red. masses --      1.4632                 1.2183                 1.2148
 Frc consts  --      0.8690                 1.3085                 1.3105
 IR Inten    --     91.3872                 8.4264                11.3195

                     46                     47                     48
                      A                      A                      A
 Frequencies --   1354.6521              1357.3280              1375.2516
 Red. masses --      1.2150                 1.2150                 1.2041
 Frc consts  --      1.3137                 1.3188                 1.3417
 IR Inten    --     14.4212                16.3686                 4.2552

                     49                     50                     51
                      A                      A                      A
 Frequencies --   1378.0563              1479.2066              1481.2199
 Red. masses --      1.2027                 1.0524                 1.0537
 Frc consts  --      1.3457                 1.3567                 1.3621
 IR Inten    --      1.6352                 2.6106                 0.1862

                     52                     53                     54
                      A                      A                      A
 Frequencies --   1485.2598              1490.3077              1490.7327
 Red. masses --      1.0516                 1.0490                 1.0504
 Frc consts  --      1.3668                 1.3727                 1.3753
 IR Inten    --      1.0524                 0.2388                 2.1252

                     55                     56                     57
                      A                      A                      A
 Frequencies --   1492.0940              1494.1399              1495.4630
 Red. masses --      1.0497                 1.0482                 1.0487
 Frc consts  --      1.3769                 1.3788                 1.3818
 IR Inten    --      2.2887                10.4315                17.5842

                     58                     59                     60
                      A                      A                      A
 Frequencies --   1500.9924              1503.1611              1510.2950
 Red. masses --      1.0488                 1.0491                 1.0460
 Frc consts  --      1.3922                 1.3967                 1.4057
 IR Inten    --     15.8766                 4.0683                13.4988

                     61                     62                     63
                      A                      A                      A
 Frequencies --   1517.7293              2018.8036              2059.3070
 Red. masses --      1.0449                 1.0114                 1.0128
 Frc consts  --      1.4182                 2.4285                 2.5305
 IR Inten    --      3.0309               624.7565               421.3611

                     64                     65                     66
                      A                      A                      A
 Frequencies --   3053.7243              3054.5031              3055.2147
 Red. masses --      1.0344                 1.0343                 1.0348
 Frc consts  --      5.6835                 5.6857                 5.6912
 IR Inten    --      1.9932                12.0627                 7.7844

                     67                     68                     69
                      A                      A                      A
 Frequencies --   3055.8192              3055.9814              3058.8869
 Red. masses --      1.0350                 1.0347                 1.0355
 Frc consts  --      5.6943                 5.6932                 5.7087
 IR Inten    --      7.1713                34.3967                24.7898

                     70                     71                     72
                      A                      A                      A
 Frequencies --   3130.7873              3134.5317              3135.4110
 Red. masses --      1.1028                 1.1030                 1.1029
 Frc consts  --      6.3686                 6.3853                 6.3880
 IR Inten    --     18.4214                 0.3478                19.3944

                     73                     74                     75
                      A                      A                      A
 Frequencies --   3135.9623              3136.8292              3138.4394
 Red. masses --      1.1029                 1.1025                 1.1025
 Frc consts  --      6.3901                 6.3918                 6.3980
 IR Inten    --      4.6877                32.5091                27.1867

                     76                     77                     78
                      A                      A                      A
 Frequencies --   3148.8630              3150.9700              3153.4919
 Red. masses --      1.1029                 1.1030                 1.1028
 Frc consts  --      6.4429                 6.4523                 6.4617
 IR Inten    --      4.6672                10.4709                 1.7418

                     79                     80                     81
                      A                      A                      A
 Frequencies --   3154.2658              3155.1089              3160.6090
 Red. masses --      1.1025                 1.1028                 1.1014
 Frc consts  --      6.4631                 6.4683                 6.4821
 IR Inten    --      7.5103                 5.2384                 4.2263

 - Thermochemistry -
 -------------------
 Temperature   298.150 Kelvin.  Pressure   1.00000 Atm.
 Atom     1 has atomic number 78 and mass 194.96480

 Molecular mass:   349.06883 amu.
 Principal axes and moments of inertia in atomic units:
                           1         2         3
     Eigenvalues --  1801.680513538.828734331.58134
           X            1.00000  -0.00023   0.00002
           Y            0.00023   1.00000  -0.00172
           Z           -0.00002   0.00172   1.00000
 This molecule is an asymmetric top.
 Rotational symmetry number  1.
 Warning -- assumption of classical behavior for rotation
           may cause significant error
 Rotational temperatures (Kelvin)      0.04807     0.02448     0.02000
 Rotational constants (GHZ):           1.00170     0.50998     0.41665
    1 imaginary frequencies ignored.
 Zero-point vibrational energy     648759.2 (Joules/Mol)
                                  155.05717 (Kcal/Mol)
 Warning -- explicit consideration of  22 degrees of freedom as
           vibrations may cause significant error
 Vibrational temperatures:     37.74   134.81   178.21   192.06   208.26
          (Kelvin)            256.29   268.42   273.71   289.16   299.33
                              316.08   323.06   330.64   369.57   371.57
                              376.41   384.01   412.60   497.64   517.09
                              781.09   815.99   913.01   965.40   972.78
                             1049.72  1049.88  1058.29  1058.63  1176.37
                             1179.78  1255.14  1270.15  1275.17  1276.09
                             1284.67  1413.14  1415.35  1417.49  1420.12
                             1422.06  1444.56  1942.54  1946.82  1949.04
                             1952.89  1978.68  1982.72  2128.25  2131.15
                             2136.96  2144.22  2144.83  2146.79  2149.73
                             2151.64  2159.59  2162.71  2172.98  2183.67
                             2904.61  2962.88  4393.63  4394.75  4395.77
                             4396.64  4396.88  4401.06  4504.50  4509.89
                             4511.16  4511.95  4513.20  4515.51  4530.51
                             4533.54  4537.17  4538.28  4539.50  4547.41

 Zero-point correction=                           0.247099 (Hartree/Particle)
 Thermal correction to Energy=                    0.262991
 Thermal correction to Enthalpy=                  0.263935
 Thermal correction to Gibbs Free Energy=         0.204112
 Sum of electronic and zero-point Energies=          -1042.683169
 Sum of electronic and thermal Energies=             -1042.667277
 Sum of electronic and thermal Enthalpies=           -1042.666333
 Sum of electronic and thermal Free Energies=        -1042.726156

                     E (Thermal)             CV                S
                      KCal/Mol        Cal/Mol-Kelvin    Cal/Mol-Kelvin
 Total                  165.029             58.034            125.908
 Electronic               0.000              0.000              0.000
 Translational            0.889              2.981             43.444
 Rotational               0.889              2.981             31.691
 Vibrational            163.252             52.072             50.773
 Vibration     1          0.593              1.985              6.096
 Vibration     2          0.603              1.954              3.581
 Vibration     3          0.610              1.929              3.039
 Vibration     4          0.613              1.920              2.895
 Vibration     5          0.616              1.908              2.740
 Vibration     6          0.629              1.869              2.348
 Vibration     7          0.632              1.858              2.262
 Vibration     8          0.634              1.853              2.226
 Vibration     9          0.638              1.839              2.124
 Vibration    10          0.641              1.828              2.061
 Vibration    11          0.647              1.811              1.962
 Vibration    12          0.649              1.804              1.922
 Vibration    13          0.652              1.795              1.880
 Vibration    14          0.666              1.751              1.683
 Vibration    15          0.667              1.749              1.674
 Vibration    16          0.669              1.743              1.651
 Vibration    17          0.672              1.734              1.616
 Vibration    18          0.684              1.698              1.493
 Vibration    19          0.724              1.584              1.185
 Vibration    20          0.734              1.556              1.125
 Vibration    21          0.898              1.155              0.559
 Vibration    22          0.923              1.102              0.510

 Normal termination of Gaussian 16 at Thu Oct 31 04:54:45 2019.
