 Gaussian 16, Revision A.03,
 Gaussian 16:  ES64L-G16RevA.03 25-Dec-2016

 ----------------------------------------------------------------------
 #p opt=(calcfc,ts,noeigen) freq b3lyp/6-31g(d) scrf=(smd,solvent=benze
 ne) em=gd3bj
 ----------------------------------------------------------------------

 -----
 title
 -----
 Symbolic Z-matrix:
 Charge =  0 Multiplicity = 1

 SCF Done:  E(RB3LYP) =  -462.242988687     A.U. after   11 cycles
 SCF Done:  E(RB3LYP) =  -462.243198301     A.U. after    9 cycles
 SCF Done:  E(RB3LYP) =  -462.242876350     A.U. after   10 cycles
 SCF Done:  E(RB3LYP) =  -462.242843887     A.U. after    9 cycles
 SCF Done:  E(RB3LYP) =  -462.242802056     A.U. after    9 cycles
 SCF Done:  E(RB3LYP) =  -462.242723389     A.U. after    9 cycles
 SCF Done:  E(RB3LYP) =  -462.242711839     A.U. after    9 cycles
 SCF Done:  E(RB3LYP) =  -462.242727575     A.U. after    8 cycles
 SCF Done:  E(RB3LYP) =  -462.242732963     A.U. after    8 cycles
 SCF Done:  E(RB3LYP) =  -462.242732780     A.U. after    8 cycles
 SCF Done:  E(RB3LYP) =  -462.242732953     A.U. after    7 cycles
 SCF Done:  E(RB3LYP) =  -462.242732950     A.U. after    6 cycles
 Optimization completed.
    -- Stationary point found.
 Normal termination of Gaussian 16 at Fri Nov  1 04:57:22 2019.

 --------------------------------------------------------------------
 #P Geom=AllCheck Guess=TCheck SCRF=Check GenChk RB3LYP/6-31G(d) Freq
 --------------------------------------------------------------------

 Structure from the checkpoint file:  "PMe3_ts2.chk"
 -----
 title
 -----
 Charge =  0 Multiplicity = 1

                         Standard orientation:
 ---------------------------------------------------------------------
 Center     Atomic      Atomic             Coordinates (Angstroms)
 Number     Number       Type             X           Y           Z
 ---------------------------------------------------------------------
      1         15           0       -0.007726   -0.217854    0.456414
      2          6           0        0.062109    1.631807   -0.123435
      3          1           0       -0.846450    2.153426    0.208717
      4          1           0        0.921796    2.137524    0.337496
      5          1           0        0.138992    1.745790   -1.213394
      6          6           0        1.585322   -0.642903   -0.397081
      7          1           0        1.985298   -1.594934   -0.039790
      8          1           0        1.374481   -0.725956   -1.470075
      9          1           0        2.321994    0.154242   -0.263248
     10          6           0       -1.624282   -0.544715   -0.406376
     11          1           0       -1.575567   -1.533291   -0.874037
     12          1           0       -2.409361   -0.580096    0.358453
     13          1           0       -1.881168    0.217714   -1.146958
     14          1           0       -0.106423   -1.617166    1.007495
     15          1           0        0.053407    0.245421    1.810477
 ---------------------------------------------------------------------

 SCF Done:  E(RB3LYP) =  -462.242732950     A.U. after    1 cycles

 The electronic state is 1-A.
 Alpha  occ. eigenvalues --  -77.13147 -10.17634 -10.17407 -10.14123  -6.58771
 Alpha  occ. eigenvalues --   -4.75125  -4.75078  -4.74815  -0.75614  -0.69215
 Alpha  occ. eigenvalues --   -0.65957  -0.57046  -0.43548  -0.42979  -0.41502
 Alpha  occ. eigenvalues --   -0.40159  -0.38274  -0.37186  -0.35055  -0.33847
 Alpha  occ. eigenvalues --   -0.32693  -0.19588
 Alpha virt. eigenvalues --    0.06686   0.07889   0.10188   0.10982   0.14599
 Alpha virt. eigenvalues --    0.14977   0.15018   0.17081   0.18238   0.18857
 Alpha virt. eigenvalues --    0.19476   0.21602   0.26802   0.33363   0.36419

 Mulliken charges:
               1
     1  P    0.542795
     2  C   -0.665374
     3  H    0.139407
     4  H    0.139464
     5  H    0.136983
     6  C   -0.600693
     7  H    0.176411
     8  H    0.181506
     9  H    0.179879
    10  C   -0.607404
    11  H    0.177586
    12  H    0.185075
    13  H    0.172138
    14  H   -0.158147
    15  H    0.000373
 Sum of Mulliken charges =  -0.00000

 Dipole moment (field-independent basis, Debye):
    X=              0.0225    Y=              0.1166    Z=             -0.9332  Tot=              0.9407
 Quadrupole moment (field-independent basis, Debye-Ang):
   XX=            -33.9034   YY=            -40.2414   ZZ=            -36.6424
   XY=             -0.2334   XZ=             -0.1683   YZ=              2.1120

  Exact polarizability:  66.061   0.101  70.169   0.410  -2.452  59.870
 Approx polarizability:  74.749   0.027  81.339   0.693  -2.610  73.947

 ******    1 imaginary frequencies (negative Signs) ******

                      1                      2                      3
                      A                      A                      A
 Frequencies --    -78.9560                83.0514               168.3180
 Red. masses --      1.0526                 1.0718                 2.3823
 Frc consts  --      0.0039                 0.0044                 0.0398
 IR Inten    --      0.1179                 0.1176                 2.0535

                      4                      5                      6
                      A                      A                      A
 Frequencies --    270.2931               319.1574               343.4936
 Red. masses --      1.2116                 1.6202                 2.3257
 Frc consts  --      0.0522                 0.0972                 0.1617
 IR Inten    --      1.3566                 3.1658                 3.1422

                      7                      8                      9
                      A                      A                      A
 Frequencies --    512.0817               543.3210               614.9684
 Red. masses --      1.1457                 3.8257                 3.6341
 Frc consts  --      0.1770                 0.6654                 0.8097
 IR Inten    --      3.8304                70.9458                14.2235

                     10                     11                     12
                      A                      A                      A
 Frequencies --    675.0427               723.4090               799.5313
 Red. masses --      1.0835                 2.2709                 1.1968
 Frc consts  --      0.2909                 0.7002                 0.4508
 IR Inten    --     25.1348                19.2660                 2.4199

                     13                     14                     15
                      A                      A                      A
 Frequencies --    837.5686               868.9634               979.6306
 Red. masses --      1.2682                 1.2427                 1.4134
 Frc consts  --      0.5242                 0.5529                 0.7992
 IR Inten    --      7.8431                 5.4660                75.2802

                     16                     17                     18
                      A                      A                      A
 Frequencies --    987.6451              1047.8200              1209.3190
 Red. masses --      1.4160                 1.3640                 1.1211
 Frc consts  --      0.8138                 0.8824                 0.9660
 IR Inten    --     98.1992               218.4545               184.8137

                     19                     20                     21
                      A                      A                      A
 Frequencies --   1319.9527              1341.5547              1353.9001
 Red. masses --      1.2256                 1.2030                 1.1953
 Frc consts  --      1.2581                 1.2756                 1.2909
 IR Inten    --     25.4717                17.5801                12.6818

                     22                     23                     24
                      A                      A                      A
 Frequencies --   1397.9881              1482.6164              1486.9453
 Red. masses --      1.0316                 1.0498                 1.0485
 Frc consts  --      1.1879                 1.3596                 1.3659
 IR Inten    --    117.6308                 2.6565                 2.1960

                     25                     26                     27
                      A                      A                      A
 Frequencies --   1491.4174              1497.5867              1503.9825
 Red. masses --      1.0539                 1.0496                 1.0538
 Frc consts  --      1.3812                 1.3869                 1.4043
 IR Inten    --      1.7651                 1.2241                 1.8401

                     28                     29                     30
                      A                      A                      A
 Frequencies --   1511.2991              1795.6165              2285.1757
 Red. masses --      1.0523                 1.0276                 1.0380
 Frc consts  --      1.4161                 1.9521                 3.1935
 IR Inten    --      4.1382               765.9005               204.4946

                     31                     32                     33
                      A                      A                      A
 Frequencies --   3016.9213              3056.6097              3061.4165
 Red. masses --      1.0330                 1.0328                 1.0348
 Frc consts  --      5.5397                 5.6850                 5.7139
 IR Inten    --     17.5571                 4.3230                 4.1344

                     34                     35                     36
                      A                      A                      A
 Frequencies --   3095.2499              3100.2488              3136.0620
 Red. masses --      1.1026                 1.1033                 1.1013
 Frc consts  --      6.2238                 6.2480                 6.3817
 IR Inten    --     46.7449                42.4837                 8.1024

                     37                     38                     39
                      A                      A                      A
 Frequencies --   3140.7317              3158.5033              3167.8323
 Red. masses --      1.0995                 1.1062                 1.1063
 Frc consts  --      6.3902                 6.5018                 6.5413
 IR Inten    --     12.9718                20.5950                17.5984

 - Thermochemistry -
 -------------------
 Temperature   298.150 Kelvin.  Pressure   1.00000 Atm.
 Atom     1 has atomic number 15 and mass  30.97376

 Molecular mass:    78.05984 amu.
 Principal axes and moments of inertia in atomic units:
                           1         2         3
     Eigenvalues --   299.14973 384.33018 534.10613
           X            0.99997   0.00713  -0.00122
           Y           -0.00713   0.99997  -0.00190
           Z            0.00121   0.00191   1.00000
 This molecule is an asymmetric top.
 Rotational symmetry number  1.
 Rotational temperatures (Kelvin)      0.28953     0.22536     0.16217
 Rotational constants (GHZ):           6.03290     4.69581     3.37899
    1 imaginary frequencies ignored.
 Zero-point vibrational energy     343239.9 (Joules/Mol)
                                   82.03630 (Kcal/Mol)
 Warning -- explicit consideration of   8 degrees of freedom as
           vibrations may cause significant error
 Vibrational temperatures:    119.49   242.17   388.89   459.20   494.21
          (Kelvin)            736.77   781.72   884.80   971.24  1040.82
                             1150.35  1205.07  1250.24  1409.47  1421.00
                             1507.58  1739.94  1899.12  1930.20  1947.96
                             2011.39  2133.15  2139.38  2145.82  2154.69
                             2163.90  2174.42  2583.49  3287.86  4340.68
                             4397.78  4404.70  4453.37  4460.57  4512.09
                             4518.81  4544.38  4557.80

 Zero-point correction=                           0.130733 (Hartree/Particle)
 Thermal correction to Energy=                    0.137358
 Thermal correction to Enthalpy=                  0.138302
 Thermal correction to Gibbs Free Energy=         0.101132
 Sum of electronic and zero-point Energies=           -462.112000
 Sum of electronic and thermal Energies=              -462.105375
 Sum of electronic and thermal Enthalpies=            -462.104431
 Sum of electronic and thermal Free Energies=         -462.141601

                     E (Thermal)             CV                S
                      KCal/Mol        Cal/Mol-Kelvin    Cal/Mol-Kelvin
 Total                   86.193             23.887             78.230
 Electronic               0.000              0.000              0.000
 Translational            0.889              2.981             38.980
 Rotational               0.889              2.981             25.621
 Vibrational             84.416             17.925             13.629
 Vibration     1          0.600              1.961              3.817
 Vibration     2          0.625              1.881              2.454
 Vibration     3          0.674              1.728              1.594
 Vibration     4          0.705              1.637              1.314
 Vibration     5          0.722              1.588              1.196
 Vibration     6          0.867              1.223              0.629
 Vibration     7          0.898              1.154              0.558
 Vibration     8          0.974              1.000              0.425

 Optimization completed.
    -- Stationary point found.
 Normal termination of Gaussian 16 at Fri Nov  1 04:58:50 2019.
