 Gaussian 16, Revision A.03,
 Gaussian 16:  ES64L-G16RevA.03 25-Dec-2016

 ----------------------------
 #p b3lyp/6-31g* opt em=gd3bj
 ----------------------------

 -------------------
 Title Card Required
 -------------------
 Symbolic Z-matrix:
 Charge =  0 Multiplicity = 1

 SCF Done:  E(RB3LYP) =  -461.093720285     A.U. after   11 cycles
 SCF Done:  E(RB3LYP) =  -461.113383093     A.U. after   10 cycles
 SCF Done:  E(RB3LYP) =  -461.115733335     A.U. after   11 cycles
 SCF Done:  E(RB3LYP) =  -461.115990938     A.U. after    9 cycles
 SCF Done:  E(RB3LYP) =  -461.116021529     A.U. after    9 cycles
 Optimization completed.
    -- Stationary point found.

                         Standard orientation:
 ---------------------------------------------------------------------
 Center     Atomic      Atomic             Coordinates (Angstroms)
 Number     Number       Type             X           Y           Z
 ---------------------------------------------------------------------
      1         15           0        0.000095   -0.000025    0.611603
      2          6           0       -1.000084   -1.295208   -0.282957
      3          1           0       -0.653809   -2.293355    0.006525
      4          1           0       -2.053268   -1.212877    0.006913
      5          1           0       -0.927276   -1.200463   -1.373535
      6          6           0       -0.621873    1.513554   -0.282948
      7          1           0       -1.659265    1.712809    0.007085
      8          1           0       -0.023812    2.384531    0.006394
      9          1           0       -0.576911    1.402874   -1.373522
     10          6           0        1.621820   -0.218318   -0.283041
     11          1           0        2.313016    0.580591    0.006786
     12          1           0        2.077141   -1.171615    0.006632
     13          1           0        1.503591   -0.202292   -1.373645
 ---------------------------------------------------------------------

 The electronic state is 1-A.
 Alpha  occ. eigenvalues --  -77.07141 -10.17806 -10.17805 -10.17805  -6.53898
 Alpha  occ. eigenvalues --   -4.70157  -4.70157  -4.69636  -0.75216  -0.68359
 Alpha  occ. eigenvalues --   -0.68357  -0.52445  -0.43132  -0.41960  -0.41959
 Alpha  occ. eigenvalues --   -0.39425  -0.39423  -0.38225  -0.31945  -0.31944
 Alpha  occ. eigenvalues --   -0.22071
 Alpha virt. eigenvalues --    0.06415   0.06417   0.08656   0.12455   0.13958
 Alpha virt. eigenvalues --    0.13959   0.16600   0.16601   0.17304   0.19430
 Alpha virt. eigenvalues --    0.19437   0.20264   0.35260   0.38087   0.38088

 Mulliken charges:
               1
     1  P    0.405748
     2  C   -0.620378
     3  H    0.165004
     4  H    0.165012
     5  H    0.155112
     6  C   -0.620381
     7  H    0.165011
     8  H    0.165004
     9  H    0.155114
    10  C   -0.620383
    11  H    0.165012
    12  H    0.165012
    13  H    0.155114
 Sum of Mulliken charges =  -0.00000

 Dipole moment (field-independent basis, Debye):
    X=             -0.0000    Y=              0.0000    Z=             -1.3461  Tot=              1.3461
 Quadrupole moment (field-independent basis, Debye-Ang):
   XX=            -33.1082   YY=            -33.1089   ZZ=            -37.6253
   XY=             -0.0000   XZ=             -0.0005   YZ=              0.0001

 Normal termination of Gaussian 16 at Wed Oct 30 13:45:17 2019.
