 Gaussian 16, Revision A.03,
 Gaussian 16:  ES64L-G16RevA.03 25-Dec-2016

 ------------------------------------------------------------
 #p irc=(lqa,calcfc,maxpoints=50,stepsize=20) b3lyp/6-31+g(d)
 ------------------------------------------------------------

 -------------------
 Title Card Required
 -------------------
 Symbolic Z-matrix:
 Charge =  0 Multiplicity = 1

 SCF Done:  E(RB3LYP) =  -270.430933261     A.U. after   16 cycles
 SCF Done:  E(RB3LYP) =  -270.431036596     A.U. after   12 cycles
 SCF Done:  E(RB3LYP) =  -270.431363739     A.U. after   12 cycles
 SCF Done:  E(RB3LYP) =  -270.431943857     A.U. after   12 cycles
 SCF Done:  E(RB3LYP) =  -270.432788162     A.U. after   12 cycles
 SCF Done:  E(RB3LYP) =  -270.433906341     A.U. after   12 cycles
 SCF Done:  E(RB3LYP) =  -270.435297732     A.U. after   12 cycles
 SCF Done:  E(RB3LYP) =  -270.436967130     A.U. after   12 cycles
 SCF Done:  E(RB3LYP) =  -270.438899515     A.U. after   12 cycles
 SCF Done:  E(RB3LYP) =  -270.441082878     A.U. after   13 cycles
 SCF Done:  E(RB3LYP) =  -270.481855876     A.U. after   11 cycles
 SCF Done:  E(RB3LYP) =  -270.487091496     A.U. after   11 cycles
 SCF Done:  E(RB3LYP) =  -270.492107943     A.U. after   10 cycles
 SCF Done:  E(RB3LYP) =  -270.496652565     A.U. after   11 cycles
 SCF Done:  E(RB3LYP) =  -270.500389039     A.U. after   10 cycles
 SCF Done:  E(RB3LYP) =  -270.502970751     A.U. after   11 cycles
 SCF Done:  E(RB3LYP) =  -270.503989391     A.U. after   10 cycles
 SCF Done:  E(RB3LYP) =  -270.504502678     A.U. after   10 cycles
 SCF Done:  E(RB3LYP) =  -270.504240770     A.U. after   10 cycles
 SCF Done:  E(RB3LYP) =  -270.504772878     A.U. after   10 cycles

                          Input orientation:
 ---------------------------------------------------------------------
 Center     Atomic      Atomic             Coordinates (Angstroms)
 Number     Number       Type             X           Y           Z
 ---------------------------------------------------------------------
      1          6           0        1.211454   -0.853570   -0.306545
      2          1           0        2.003473   -1.466216    0.138760
      3          1           0        1.010447   -1.217947   -1.321869
      4          6           0       -0.081129   -0.733365    0.543084
      5          1           0       -0.197732   -1.377486    1.418304
      6          8           0       -1.293327   -0.657961   -0.241016
      7          6           0       -1.197454    0.794706   -0.306192
      8          1           0       -1.086284    1.150155   -1.338315
      9          1           0       -2.082820    1.257802    0.145032
     10          6           0        0.071401    0.813900    0.571908
     11          1           0        0.026714    1.413470    1.482256
     12          6           0        1.427024    0.690961   -0.173398
     13          1           0        1.540923    1.265141   -1.100794
     14          1           0        2.269110    0.932217    0.486083
 ---------------------------------------------------------------------

 Alpha  occ. eigenvalues --  -19.14782 -10.24001 -10.23845 -10.19930 -10.19511
 Alpha  occ. eigenvalues --  -10.18874  -1.04239  -0.82891  -0.71857  -0.65383
 Alpha  occ. eigenvalues --   -0.62729  -0.52811  -0.51642  -0.48230  -0.46449
 Alpha  occ. eigenvalues --   -0.42222  -0.40995  -0.37836  -0.35607  -0.33578
 Alpha  occ. eigenvalues --   -0.31078  -0.28834  -0.24971
 Alpha virt. eigenvalues --    0.00274   0.01218   0.02046   0.02943   0.04224
 Alpha virt. eigenvalues --    0.05043   0.05874   0.06454   0.06880   0.09047
 Alpha virt. eigenvalues --    0.09553   0.10024   0.10769   0.11200   0.12096

 Mulliken charges:
               1
     1  C   -0.433822
     2  H    0.198991
     3  H    0.216771
     4  C    0.051536
     5  H    0.176788
     6  O   -0.396589
     7  C   -0.273411
     8  H    0.181691
     9  H    0.183418
    10  C    0.035695
    11  H    0.186042
    12  C   -0.524007
    13  H    0.196881
    14  H    0.200016
 Sum of Mulliken charges =  -0.00000

 Dipole moment (field-independent basis, Debye):
    X=              1.4645    Y=              1.3619    Z=              0.7500  Tot=              2.1359
 Quadrupole moment (field-independent basis, Debye-Ang):
   XX=            -39.1511   YY=            -37.2826   ZZ=            -36.1389
   XY=             -3.2687   XZ=             -0.3399   YZ=             -1.1354

  Exact polarizability:   0.000   0.000   0.000   0.000   0.000   0.000
 Approx polarizability:  77.618  -1.868  77.761   0.844  -1.609  73.231

 Normal termination of Gaussian 16 at Tue Oct 15 11:28:11 2019.
