 Gaussian 16, Revision A.03,
 Gaussian 16:  ES64L-G16RevA.03 25-Dec-2016

 --------------------------------------------
 #p irc=(calcfc,maxpoints=40) b3lyp/6-31+g(d)
 --------------------------------------------

 -------------------
 Title Card Required
 -------------------
 Symbolic Z-matrix:
 Charge =  0 Multiplicity = 1

 SCF Done:  E(RB3LYP) =  -270.430933261     A.U. after   16 cycles
 SCF Done:  E(RB3LYP) =  -270.430958762     A.U. after   12 cycles
 SCF Done:  E(RB3LYP) =  -270.431038216     A.U. after   12 cycles
 SCF Done:  E(RB3LYP) =  -270.431175906     A.U. after   12 cycles
 SCF Done:  E(RB3LYP) =  -270.431374561     A.U. after   12 cycles
 SCF Done:  E(RB3LYP) =  -270.431636925     A.U. after   12 cycles
 SCF Done:  E(RB3LYP) =  -270.431965038     A.U. after   12 cycles
 SCF Done:  E(RB3LYP) =  -270.432360610     A.U. after   12 cycles
 SCF Done:  E(RB3LYP) =  -270.432824692     A.U. after   12 cycles
 SCF Done:  E(RB3LYP) =  -270.433358148     A.U. after   12 cycles
 SCF Done:  E(RB3LYP) =  -270.440703922     A.U. after   11 cycles
 SCF Done:  E(RB3LYP) =  -270.441231891     A.U. after   11 cycles
 SCF Done:  E(RB3LYP) =  -270.441794603     A.U. after   11 cycles
 SCF Done:  E(RB3LYP) =  -270.441810885     A.U. after   10 cycles
 SCF Done:  E(RB3LYP) =  -270.442441800     A.U. after   11 cycles
 SCF Done:  E(RB3LYP) =  -270.443136809     A.U. after   11 cycles
 SCF Done:  E(RB3LYP) =  -270.443888396     A.U. after   11 cycles
 SCF Done:  E(RB3LYP) =  -270.443896099     A.U. after   10 cycles
 SCF Done:  E(RB3LYP) =  -270.444724276     A.U. after   11 cycles
 SCF Done:  E(RB3LYP) =  -270.445636387     A.U. after   11 cycles

                          Input orientation:
 ---------------------------------------------------------------------
 Center     Atomic      Atomic             Coordinates (Angstroms)
 Number     Number       Type             X           Y           Z
 ---------------------------------------------------------------------
      1          6           0        1.190948   -0.820167   -0.272533
      2          1           0        1.973636   -1.424188    0.200641
      3          1           0        1.134528   -1.141962   -1.328372
      4          6           0       -0.131553   -1.070881    0.417464
      5          1           0       -0.277206   -2.037410    0.908072
      6          8           0       -1.294793   -0.650901   -0.150687
      7          6           0       -1.162678    0.773393   -0.248051
      8          1           0       -1.196461    1.068626   -1.312202
      9          1           0       -2.047765    1.186481    0.246988
     10          6           0        0.103551    1.147686    0.462386
     11          1           0        0.085292    2.133868    0.931727
     12          6           0        1.421357    0.683081   -0.098479
     13          1           0        1.747582    1.205015   -1.020629
     14          1           0        2.206752    0.852077    0.646432
 ---------------------------------------------------------------------

 Alpha  occ. eigenvalues --  -19.18586 -10.26855 -10.24529 -10.19732 -10.19634
 Alpha  occ. eigenvalues --  -10.19161  -1.07648  -0.81049  -0.75813  -0.65300
 Alpha  occ. eigenvalues --   -0.63553  -0.53286  -0.50984  -0.49293  -0.47213
 Alpha  occ. eigenvalues --   -0.43250  -0.41674  -0.40536  -0.36093  -0.34494
 Alpha  occ. eigenvalues --   -0.33929  -0.29236  -0.18955
 Alpha virt. eigenvalues --   -0.06560   0.00775   0.02233   0.02670   0.03006
 Alpha virt. eigenvalues --    0.04788   0.05230   0.06033   0.06396   0.07116
 Alpha virt. eigenvalues --    0.09693   0.10294   0.10793   0.11622   0.12337

 Mulliken charges:
               1
     1  C   -0.367837
     2  H    0.208918
     3  H    0.214592
     4  C   -0.160422
     5  H    0.177377
     6  O   -0.241579
     7  C   -0.331570
     8  H    0.199672
     9  H    0.201387
    10  C    0.086896
    11  H    0.170733
    12  C   -0.554744
    13  H    0.187604
    14  H    0.208972
 Sum of Mulliken charges =   0.00000

 Dipole moment (field-independent basis, Debye):
    X=              0.9829    Y=              0.3879    Z=             -0.5808  Tot=              1.2057
 Quadrupole moment (field-independent basis, Debye-Ang):
   XX=            -38.1498   YY=            -35.3156   ZZ=            -39.5713
   XY=             -2.9543   XZ=              0.1195   YZ=             -1.1947

  Exact polarizability:   0.000   0.000   0.000   0.000   0.000   0.000
 Approx polarizability:  90.458   9.396 169.178   0.874   0.107  85.074

 Normal termination of Gaussian 16 at Tue Oct 15 10:42:46 2019.
