 Gaussian 16, Revision A.03,
 Gaussian 16:  ES64L-G16RevA.03 25-Dec-2016

 -----------------------------------------------
 #p irc=(lqa,calcfc,maxpoint=30) b3lyp/6-31+g(d)
 -----------------------------------------------

 -------------------
 Title Card Required
 -------------------
 Symbolic Z-matrix:
 Charge =  0 Multiplicity = 1

 SCF Done:  E(RB3LYP) =  -270.475584265     A.U. after   14 cycles
 SCF Done:  E(RB3LYP) =  -270.475928415     A.U. after   11 cycles
 SCF Done:  E(RB3LYP) =  -270.476954258     A.U. after   11 cycles
 SCF Done:  E(RB3LYP) =  -270.478630465     A.U. after   11 cycles
 SCF Done:  E(RB3LYP) =  -270.480882905     A.U. after   11 cycles
 SCF Done:  E(RB3LYP) =  -270.483587330     A.U. after   11 cycles
 SCF Done:  E(RB3LYP) =  -270.486565101     A.U. after   11 cycles
 SCF Done:  E(RB3LYP) =  -270.489590981     A.U. after   11 cycles
 SCF Done:  E(RB3LYP) =  -270.492423772     A.U. after   11 cycles
 SCF Done:  E(RB3LYP) =  -270.494881951     A.U. after   11 cycles
 SCF Done:  E(RB3LYP) =  -270.536346346     A.U. after   11 cycles
 SCF Done:  E(RB3LYP) =  -270.537457933     A.U. after   11 cycles
 SCF Done:  E(RB3LYP) =  -270.538255769     A.U. after   11 cycles
 SCF Done:  E(RB3LYP) =  -270.539101116     A.U. after   11 cycles
 SCF Done:  E(RB3LYP) =  -270.539582653     A.U. after   11 cycles
 SCF Done:  E(RB3LYP) =  -270.540371716     A.U. after   11 cycles
 SCF Done:  E(RB3LYP) =  -270.540759979     A.U. after   10 cycles
 SCF Done:  E(RB3LYP) =  -270.541428381     A.U. after   11 cycles
 SCF Done:  E(RB3LYP) =  -270.541907426     A.U. after   11 cycles
 SCF Done:  E(RB3LYP) =  -270.541803223     A.U. after   11 cycles

                          Input orientation:
 ---------------------------------------------------------------------
 Center     Atomic      Atomic             Coordinates (Angstroms)
 Number     Number       Type             X           Y           Z
 ---------------------------------------------------------------------
      1          6           0       -1.055720    0.948398   -0.222630
      2          1           0       -1.081329    0.947569   -1.321628
      3          1           0       -1.781919    1.679921    0.153540
      4          6           0       -1.397321   -0.429477    0.280223
      5          8           0       -1.076316   -1.460510   -0.295445
      6          6           0        1.908665   -0.672334    0.265663
      7          1           0        1.632598   -0.972011    1.269450
      8          1           0        2.659405   -1.298347   -0.238958
      9          6           0        1.424267    0.431857   -0.316899
     10          1           0        1.745408    0.679012   -1.329235
     11          6           0        0.366010    1.317645    0.283187
     12          1           0        0.407192    1.238218    1.388439
     13          1           0        0.560463    2.374623    0.046081
     14          1           0       -1.894618   -0.473988    1.273679
 ---------------------------------------------------------------------

 Alpha  occ. eigenvalues --  -19.16280 -10.28571 -10.21451 -10.21072 -10.19878
 Alpha  occ. eigenvalues --  -10.18909  -1.04981  -0.82181  -0.75489  -0.66994
 Alpha  occ. eigenvalues --   -0.58371  -0.56441  -0.49896  -0.47005  -0.44866
 Alpha  occ. eigenvalues --   -0.43951  -0.42704  -0.39455  -0.37646  -0.36339
 Alpha  occ. eigenvalues --   -0.34673  -0.27373  -0.25356
 Alpha virt. eigenvalues --   -0.04470  -0.00897   0.01205   0.01740   0.02496
 Alpha virt. eigenvalues --    0.03280   0.04834   0.06097   0.06614   0.07008
 Alpha virt. eigenvalues --    0.07565   0.08927   0.10114   0.10788   0.11134

 Mulliken charges:
               1
     1  C   -0.442949
     2  H    0.232079
     3  H    0.202283
     4  C    0.095331
     5  O   -0.328006
     6  C   -0.453706
     7  H    0.180295
     8  H    0.183636
     9  C    0.092717
    10  H    0.177723
    11  C   -0.519782
    12  H    0.210111
    13  H    0.211432
    14  H    0.158834
 Sum of Mulliken charges =  -0.00000

 Dipole moment (field-independent basis, Debye):
    X=             -0.3399    Y=              2.6899    Z=              0.8864  Tot=              2.8525
 Quadrupole moment (field-independent basis, Debye-Ang):
   XX=            -37.1869   YY=            -40.5267   ZZ=            -36.1461
   XY=             -3.8665   XZ=             -2.1190   YZ=             -2.1026

  Exact polarizability:   0.000   0.000   0.000   0.000   0.000   0.000
 Approx polarizability:  77.220 -13.309 103.222  -2.048  -2.691  81.193

 Normal termination of Gaussian 16 at Wed Oct 16 02:48:51 2019.
