 Gaussian 16, Revision A.03,
 Gaussian 16:  ES64L-G16RevA.03 25-Dec-2016

 -------------------------------------------
 #p irc=(calcfc,maxpoint=30) b3lyp/6-31+g(d)
 -------------------------------------------

 -------------------
 Title Card Required
 -------------------
 Symbolic Z-matrix:
 Charge =  0 Multiplicity = 1

 SCF Done:  E(RB3LYP) =  -270.430933273     A.U. after   16 cycles
 SCF Done:  E(RB3LYP) =  -270.430957501     A.U. after   12 cycles
 SCF Done:  E(RB3LYP) =  -270.431027696     A.U. after   12 cycles
 SCF Done:  E(RB3LYP) =  -270.431140056     A.U. after   11 cycles
 SCF Done:  E(RB3LYP) =  -270.431289835     A.U. after   11 cycles
 SCF Done:  E(RB3LYP) =  -270.431472695     A.U. after   11 cycles
 SCF Done:  E(RB3LYP) =  -270.431684337     A.U. after   11 cycles
 SCF Done:  E(RB3LYP) =  -270.431920710     A.U. after   11 cycles
 SCF Done:  E(RB3LYP) =  -270.432177933     A.U. after   11 cycles
 SCF Done:  E(RB3LYP) =  -270.432452516     A.U. after   11 cycles
 SCF Done:  E(RB3LYP) =  -270.447052652     A.U. after   12 cycles
 SCF Done:  E(RB3LYP) =  -270.448726100     A.U. after   12 cycles
 SCF Done:  E(RB3LYP) =  -270.448752719     A.U. after   10 cycles
 SCF Done:  E(RB3LYP) =  -270.450560178     A.U. after   12 cycles
 SCF Done:  E(RB3LYP) =  -270.452505976     A.U. after   11 cycles
 SCF Done:  E(RB3LYP) =  -270.454574438     A.U. after   12 cycles
 SCF Done:  E(RB3LYP) =  -270.456771025     A.U. after   11 cycles
 SCF Done:  E(RB3LYP) =  -270.459087792     A.U. after   12 cycles
 SCF Done:  E(RB3LYP) =  -270.461517355     A.U. after   11 cycles
 SCF Done:  E(RB3LYP) =  -270.464045000     A.U. after   12 cycles

                          Input orientation:
 ---------------------------------------------------------------------
 Center     Atomic      Atomic             Coordinates (Angstroms)
 Number     Number       Type             X           Y           Z
 ---------------------------------------------------------------------
      1          6           0        1.164736   -0.854693    0.309926
      2          1           0        1.227436   -0.748611    1.394795
      3          1           0        1.976427   -1.501916   -0.037358
      4          6           0       -0.137114   -1.356943   -0.155294
      5          8           0       -1.227359   -0.777360    0.079708
      6          6           0       -1.172612    0.992534   -0.053238
      7          1           0       -1.672010    0.834958   -1.010582
      8          1           0       -1.872146    1.314470    0.718630
      9          6           0        0.135468    1.455812    0.079616
     10          1           0        0.288314    2.064167    0.970230
     11          6           0        1.343812    0.676875   -0.286339
     12          1           0        1.568107    0.550903   -1.351106
     13          1           0        2.234375    1.098987    0.189685
     14          1           0       -0.159772   -2.158107   -0.909197
 ---------------------------------------------------------------------

 Alpha  occ. eigenvalues --  -19.18637 -10.27560 -10.21507 -10.20993 -10.20916
 Alpha  occ. eigenvalues --  -10.16596  -1.06679  -0.80373  -0.75806  -0.66713
 Alpha  occ. eigenvalues --   -0.60837  -0.55193  -0.50139  -0.47051  -0.45349
 Alpha  occ. eigenvalues --   -0.44656  -0.41206  -0.39973  -0.37336  -0.35546
 Alpha  occ. eigenvalues --   -0.34481  -0.29442  -0.18751
 Alpha virt. eigenvalues --   -0.06251   0.00674   0.01515   0.02526   0.02986
 Alpha virt. eigenvalues --    0.03830   0.05067   0.06564   0.06912   0.07709
 Alpha virt. eigenvalues --    0.08024   0.10182   0.10671   0.11394   0.11541

 Mulliken charges:
               1
     1  C   -0.518746
     2  H    0.237433
     3  H    0.201952
     4  C    0.194581
     5  O   -0.286724
     6  C   -0.555126
     7  H    0.218086
     8  H    0.203237
     9  C    0.076408
    10  H    0.163420
    11  C   -0.528409
    12  H    0.212957
    13  H    0.209746
    14  H    0.171185
 Sum of Mulliken charges =  -0.00000

 Dipole moment (field-independent basis, Debye):
    X=              1.5447    Y=             -1.2726    Z=             -0.0032  Tot=              2.0014
 Quadrupole moment (field-independent basis, Debye-Ang):
   XX=            -37.2617   YY=            -40.1234   ZZ=            -36.6179
   XY=             -2.3870   XZ=              0.5662   YZ=              2.6120

  Exact polarizability:   0.000   0.000   0.000   0.000   0.000   0.000
 Approx polarizability: 110.905   7.903 164.083  -1.244   1.013  71.832

 Normal termination of Gaussian 16 at Tue Oct 15 11:29:41 2019.
