 Gaussian 16, Revision A.03,
 Gaussian 16:  ES64L-G16RevA.03 25-Dec-2016

 ---------------------------
 #p opt freq b3lyp/6-31+g(d)
 ---------------------------

 -------------------
 Title Card Required
 -------------------
 Symbolic Z-matrix:
 Charge =  0 Multiplicity = 1

 SCF Done:  E(RB3LYP) =  -270.541905755     A.U. after   12 cycles
 SCF Done:  E(RB3LYP) =  -270.543908191     A.U. after   13 cycles
 SCF Done:  E(RB3LYP) =  -270.542409400     A.U. after   12 cycles
 SCF Done:  E(RB3LYP) =  -270.546009941     A.U. after   12 cycles
 SCF Done:  E(RB3LYP) =  -270.546960639     A.U. after   12 cycles
 SCF Done:  E(RB3LYP) =  -270.547514038     A.U. after   13 cycles
 SCF Done:  E(RB3LYP) =  -270.547633917     A.U. after   10 cycles
 SCF Done:  E(RB3LYP) =  -270.547702771     A.U. after   11 cycles
 SCF Done:  E(RB3LYP) =  -270.547727626     A.U. after   11 cycles
 SCF Done:  E(RB3LYP) =  -270.547733815     A.U. after   10 cycles
 SCF Done:  E(RB3LYP) =  -270.547734071     A.U. after    8 cycles
 SCF Done:  E(RB3LYP) =  -270.547734094     A.U. after    8 cycles
 Optimization completed.
    -- Stationary point found.
 Normal termination of Gaussian 16 at Wed Oct 16 16:28:56 2019.

 ---------------------------------------------------------------------
 #P Geom=AllCheck Guess=TCheck SCRF=Check GenChk RB3LYP/6-31+G(d) Freq
 ---------------------------------------------------------------------

 Structure from the checkpoint file:  "Pb4.chk"
 -------------------
 Title Card Required
 -------------------
 Charge =  0 Multiplicity = 1

                         Standard orientation:
 ---------------------------------------------------------------------
 Center     Atomic      Atomic             Coordinates (Angstroms)
 Number     Number       Type             X           Y           Z
 ---------------------------------------------------------------------
      1          6           0       -0.814329    0.976832   -0.145245
      2          1           0       -0.983764    1.031797   -1.226449
      3          1           0       -1.329803    1.835533    0.313775
      4          6           0       -1.481827   -0.271129    0.388447
      5          8           0       -2.254765   -0.965733   -0.237503
      6          6           0        2.276503   -0.910096    0.163836
      7          1           0        2.370806   -0.920282    1.248682
      8          1           0        2.843038   -1.660963   -0.380778
      9          6           0        1.505899   -0.019139   -0.467510
     10          1           0        1.441324   -0.052302   -1.556886
     11          6           0        0.689040    1.053532    0.204998
     12          1           0        0.822256    0.996232    1.293895
     13          1           0        1.055635    2.043009   -0.102774
     14          1           0       -1.233094   -0.527152    1.443396
 ---------------------------------------------------------------------

 SCF Done:  E(RB3LYP) =  -270.547734094     A.U. after    1 cycles

 The electronic state is 1-A.
 Alpha  occ. eigenvalues --  -19.16493 -10.28851 -10.21410 -10.21175 -10.20797
 Alpha  occ. eigenvalues --  -10.19627  -1.05731  -0.82587  -0.76178  -0.67271
 Alpha  occ. eigenvalues --   -0.58906  -0.57286  -0.49085  -0.47520  -0.45986
 Alpha  occ. eigenvalues --   -0.44899  -0.42461  -0.40178  -0.38090  -0.37048
 Alpha  occ. eigenvalues --   -0.35279  -0.27682  -0.26171
 Alpha virt. eigenvalues --   -0.04019  -0.01264   0.00576   0.01718   0.01960
 Alpha virt. eigenvalues --    0.03256   0.04675   0.05829   0.06370   0.06777
 Alpha virt. eigenvalues --    0.07570   0.08893   0.09587   0.10471   0.11255

 Mulliken charges:
               1
     1  C   -0.447182
     2  H    0.232601
     3  H    0.222268
     4  C    0.179036
     5  O   -0.357701
     6  C   -0.542388
     7  H    0.179032
     8  H    0.187663
     9  C    0.230261
    10  H    0.180391
    11  C   -0.634907
    12  H    0.202654
    13  H    0.215854
    14  H    0.152418
 Sum of Mulliken charges =  -0.00000

 Dipole moment (field-independent basis, Debye):
    X=              1.9190    Y=              2.1844    Z=              1.0338  Tot=              3.0859
 Quadrupole moment (field-independent basis, Debye-Ang):
   XX=            -44.8435   YY=            -38.2211   ZZ=            -35.5331
   XY=             -5.7509   XZ=             -2.2188   YZ=             -0.7773

  Exact polarizability:  67.496  -4.401  62.841   5.911  -2.222  56.889
 Approx polarizability:  84.597  -5.525  88.974  13.567  -3.788  83.431

                      1                      2                      3
                      A                      A                      A
 Frequencies --     59.3104                92.5288               114.3134
 Red. masses --      5.3604                 2.3722                 1.9462
 Frc consts  --      0.0111                 0.0120                 0.0150
 IR Inten    --      5.8490                 2.7392                 2.8187

                      4                      5                      6
                      A                      A                      A
 Frequencies --    266.0422               351.9383               427.7471
 Red. masses --      2.2209                 1.9015                 2.1582
 Frc consts  --      0.0926                 0.1388                 0.2327
 IR Inten    --      1.8977                 4.3042                 1.9225

                      7                      8                      9
                      A                      A                      A
 Frequencies --    504.3202               656.5583               748.3946
 Red. masses --      2.7867                 1.5624                 1.6039
 Frc consts  --      0.4176                 0.3968                 0.5293
 IR Inten    --      3.5503                17.9456                 2.5652

                     10                     11                     12
                      A                      A                      A
 Frequencies --    870.2373               900.0005               948.3068
 Red. masses --      1.6793                 1.8232                 1.3469
 Frc consts  --      0.7493                 0.8701                 0.7136
 IR Inten    --      7.3982                 1.6291                50.6094

                     13                     14                     15
                      A                      A                      A
 Frequencies --   1004.4594              1025.3424              1030.8228
 Red. masses --      1.3897                 1.1264                 2.5576
 Frc consts  --      0.8261                 0.6977                 1.6012
 IR Inten    --      3.2074                14.8846                 2.0744

                     16                     17                     18
                      A                      A                      A
 Frequencies --   1063.2406              1168.6867              1237.4409
 Red. masses --      2.1361                 2.0402                 1.2939
 Frc consts  --      1.4228                 1.6418                 1.1673
 IR Inten    --     19.8693                 7.2874                 7.9524

                     19                     20                     21
                      A                      A                      A
 Frequencies --   1243.9982              1331.6513              1356.8711
 Red. masses --      1.3569                 1.2339                 1.3576
 Frc consts  --      1.2372                 1.2892                 1.4727
 IR Inten    --      0.9390                 1.0438                 0.0778

                     22                     23                     24
                      A                      A                      A
 Frequencies --   1365.4323              1428.9403              1470.0037
 Red. masses --      1.3540                 1.2139                 1.1765
 Frc consts  --      1.4873                 1.4604                 1.4979
 IR Inten    --      3.0300                 2.7361                 6.2174

                     25                     26                     27
                      A                      A                      A
 Frequencies --   1480.4234              1505.8333              1716.0424
 Red. masses --      1.0960                 1.1093                 4.3938
 Frc consts  --      1.4153                 1.4820                 7.6234
 IR Inten    --      6.8503                 7.0112                 9.4041

                     28                     29                     30
                      A                      A                      A
 Frequencies --   1811.3115              2902.3941              3017.7372
 Red. masses --     10.1183                 1.0830                 1.0661
 Frc consts  --     19.5590                 5.3753                 5.7201
 IR Inten    --    204.7121                98.8281                15.1905

                     31                     32                     33
                      A                      A                      A
 Frequencies --   3031.7219              3065.1900              3102.6842
 Red. masses --      1.0617                 1.1019                 1.0946
 Frc consts  --      5.7493                 6.0998                 6.2085
 IR Inten    --     32.3818                13.8954                17.6458

                     34                     35                     36
                      A                      A                      A
 Frequencies --   3139.7289              3152.2217              3233.3081
 Red. masses --      1.0825                 1.0674                 1.1152
 Frc consts  --      6.2873                 6.2489                 6.8690
 IR Inten    --     22.8966                 4.5441                16.6107

 - Thermochemistry -
 -------------------
 Temperature   298.150 Kelvin.  Pressure   1.00000 Atm.
 Atom     1 has atomic number  6 and mass  12.00000

 Molecular mass:    84.05751 amu.
 Principal axes and moments of inertia in atomic units:
                           1         2         3
     Eigenvalues --   284.73948 887.962881058.68886
           X            0.99924  -0.03904  -0.00107
           Y            0.03902   0.99911  -0.01579
           Z            0.00168   0.01574   0.99987
 This molecule is an asymmetric top.
 Rotational symmetry number  1.
 Rotational temperatures (Kelvin)      0.30419     0.09754     0.08181
 Rotational constants (GHZ):           6.33822     2.03245     1.70469
 Zero-point vibrational energy     309983.4 (Joules/Mol)
                                   74.08782 (Kcal/Mol)
 Warning -- explicit consideration of   7 degrees of freedom as
           vibrations may cause significant error
 Vibrational temperatures:     85.33   133.13   164.47   382.78   506.36
          (Kelvin)            615.43   725.60   944.64  1076.77  1252.08
                             1294.90  1364.40  1445.19  1475.24  1483.12
                             1529.77  1681.48  1780.40  1789.84  1915.95
                             1952.23  1964.55  2055.93  2115.01  2130.00
                             2166.56  2469.00  2606.07  4175.90  4341.85
                             4361.97  4410.12  4464.07  4517.37  4535.34
                             4652.01

 Zero-point correction=                           0.118066 (Hartree/Particle)
 Thermal correction to Energy=                    0.125116
 Thermal correction to Enthalpy=                  0.126060
 Thermal correction to Gibbs Free Energy=         0.086405
 Sum of electronic and zero-point Energies=           -270.429668
 Sum of electronic and thermal Energies=              -270.422618
 Sum of electronic and thermal Enthalpies=            -270.421674
 Sum of electronic and thermal Free Energies=         -270.461329

                     E (Thermal)             CV                S
                      KCal/Mol        Cal/Mol-Kelvin    Cal/Mol-Kelvin
 Total                   78.511             23.651             83.461
 Electronic               0.000              0.000              0.000
 Translational            0.889              2.981             39.200
 Rotational               0.889              2.981             27.084
 Vibrational             76.734             17.690             17.176
 Vibration     1          0.597              1.974              4.480
 Vibration     2          0.602              1.955              3.606
 Vibration     3          0.607              1.938              3.194
 Vibration     4          0.672              1.735              1.622
 Vibration     5          0.728              1.571              1.158
 Vibration     6          0.789              1.410              0.866
 Vibration     7          0.860              1.240              0.647

 Optimization completed.
    -- Stationary point found.
 Normal termination of Gaussian 16 at Wed Oct 16 16:29:18 2019.
