 Gaussian 16, Revision A.03,
 Gaussian 16:  ES64L-G16RevA.03 25-Dec-2016

 -------------------------
 #p b3lyp/6-31+g* opt freq
 -------------------------

 -------------------
 Title Card Required
 -------------------
 Symbolic Z-matrix:
 Charge =  0 Multiplicity = 1

 SCF Done:  E(RB3LYP) =  -269.864893782     A.U. after   16 cycles
 SCF Done:  E(RB3LYP) =  -270.026278487     A.U. after   16 cycles
 SCF Done:  E(RB3LYP) =  -270.208002340     A.U. after   14 cycles
 SCF Done:  E(RB3LYP) =  -270.293401076     A.U. after   14 cycles
 SCF Done:  E(RB3LYP) =  -270.344402947     A.U. after   13 cycles
 SCF Done:  E(RB3LYP) =  -270.424395502     A.U. after   12 cycles
 SCF Done:  E(RB3LYP) =  -270.457744054     A.U. after   12 cycles
 SCF Done:  E(RB3LYP) =  -270.488808949     A.U. after   11 cycles
 SCF Done:  E(RB3LYP) =  -270.504764548     A.U. after   11 cycles
 SCF Done:  E(RB3LYP) =  -270.509156745     A.U. after   11 cycles
 SCF Done:  E(RB3LYP) =  -270.518524624     A.U. after    9 cycles
 SCF Done:  E(RB3LYP) =  -270.518528764     A.U. after    9 cycles
 SCF Done:  E(RB3LYP) =  -270.518534101     A.U. after    9 cycles
 SCF Done:  E(RB3LYP) =  -270.518537722     A.U. after    9 cycles
 SCF Done:  E(RB3LYP) =  -270.518540692     A.U. after    9 cycles
 SCF Done:  E(RB3LYP) =  -270.518543256     A.U. after    8 cycles
 SCF Done:  E(RB3LYP) =  -270.518545055     A.U. after    9 cycles
 SCF Done:  E(RB3LYP) =  -270.518545906     A.U. after    8 cycles
 SCF Done:  E(RB3LYP) =  -270.518546139     A.U. after    7 cycles
 Optimization completed.
    -- Stationary point found.
 Normal termination of Gaussian 16 at Tue Oct 15 00:48:39 2019.

 ---------------------------------------------------------------------
 #P Geom=AllCheck Guess=TCheck SCRF=Check GenChk RB3LYP/6-31+G(d) Freq
 ---------------------------------------------------------------------

 Structure from the checkpoint file:  "R.chk"
 -------------------
 Title Card Required
 -------------------
 Charge =  0 Multiplicity = 1

                         Standard orientation:
 ---------------------------------------------------------------------
 Center     Atomic      Atomic             Coordinates (Angstroms)
 Number     Number       Type             X           Y           Z
 ---------------------------------------------------------------------
      1          6           0        1.751329    0.859068    0.600917
      2          1           0        1.057591    0.995382    1.423022
      3          1           0        2.654595    1.459255    0.604687
      4          6           0        1.541789    0.020826   -0.421347
      5          1           0        2.240017   -0.063202   -1.249794
      6          8           0        0.503464   -0.838816   -0.623975
      7          6           0       -0.457991   -1.015638    0.414752
      8          1           0       -0.864997   -2.021463    0.251552
      9          1           0        0.050143   -1.026762    1.390179
     10          6           0       -1.582749   -0.013303    0.412153
     11          1           0       -2.290305   -0.141348    1.233386
     12          6           0       -1.777721    0.947812   -0.492263
     13          1           0       -1.091731    1.098890   -1.320963
     14          1           0       -2.630961    1.617192   -0.425540
 ---------------------------------------------------------------------

 SCF Done:  E(RB3LYP) =  -270.518546139     A.U. after    1 cycles

 The electronic state is 1-A.
 Alpha  occ. eigenvalues --  -19.19119 -10.25504 -10.24937 -10.20476 -10.19057
 Alpha  occ. eigenvalues --  -10.17822  -1.07186  -0.80097  -0.75659  -0.70286
 Alpha  occ. eigenvalues --   -0.60626  -0.54479  -0.51804  -0.49578  -0.47853
 Alpha  occ. eigenvalues --   -0.43360  -0.42298  -0.38908  -0.38300  -0.35525
 Alpha  occ. eigenvalues --   -0.33824  -0.27042  -0.23556
 Alpha virt. eigenvalues --   -0.00358   0.00681   0.01580   0.02124   0.02776
 Alpha virt. eigenvalues --    0.03030   0.04739   0.06071   0.06535   0.07301
 Alpha virt. eigenvalues --    0.08503   0.09004   0.10002   0.10738   0.11133

 Mulliken charges:
               1
     1  C   -0.403109
     2  H    0.184791
     3  H    0.187764
     4  C   -0.022661
     5  H    0.182534
     6  O   -0.317395
     7  C   -0.452714
     8  H    0.210797
     9  H    0.200488
    10  C    0.095487
    11  H    0.178387
    12  C   -0.430315
    13  H    0.201548
    14  H    0.184397
 Sum of Mulliken charges =   0.00000

 Dipole moment (field-independent basis, Debye):
    X=             -0.4967    Y=             -0.0136    Z=              0.8843  Tot=              1.0144
 Quadrupole moment (field-independent basis, Debye-Ang):
   XX=            -36.2837   YY=            -38.1453   ZZ=            -37.2542
   XY=              0.9781   XZ=             -2.5655   YZ=             -1.7843

  Exact polarizability:  65.503   1.963  64.265   2.612  -2.239  61.027
 Approx polarizability:  76.886   3.785  94.986   4.715  -1.368  95.482

                      1                      2                      3
                      A                      A                      A
 Frequencies --     85.6775               135.9056               174.9826
 Red. masses --      3.3574                 1.9679                 1.9369
 Frc consts  --      0.0145                 0.0214                 0.0349
 IR Inten    --      0.1688                 0.5764                 1.0484

                      4                      5                      6
                      A                      A                      A
 Frequencies --    277.8105               327.0736               537.9688
 Red. masses --      3.2206                 2.2933                 1.5900
 Frc consts  --      0.1465                 0.1445                 0.2711
 IR Inten    --      4.9317                 2.7088                 8.7629

                      7                      8                      9
                      A                      A                      A
 Frequencies --    573.0032               643.1526               704.6421
 Red. masses --      1.6327                 2.6261                 1.5634
 Frc consts  --      0.3158                 0.6400                 0.4573
 IR Inten    --      9.7302                 5.7547                 2.5069

                     10                     11                     12
                      A                      A                      A
 Frequencies --    831.5917               867.0523               930.1234
 Red. masses --      1.3575                 3.5907                 2.2943
 Frc consts  --      0.5531                 1.5904                 1.1695
 IR Inten    --     71.2189                 7.9452                 9.4169

                     13                     14                     15
                      A                      A                      A
 Frequencies --    948.7012               988.7969              1008.2789
 Red. masses --      1.3489                 1.1652                 1.6071
 Frc consts  --      0.7153                 0.6712                 0.9626
 IR Inten    --     46.7254                17.7293                35.3442

                     16                     17                     18
                      A                      A                      A
 Frequencies --   1019.0346              1063.9379              1108.9970
 Red. masses --      1.0822                 1.9299                 1.7165
 Frc consts  --      0.6621                 1.2871                 1.2438
 IR Inten    --      8.1610                24.6851                 7.4499

                     19                     20                     21
                      A                      A                      A
 Frequencies --   1235.7954              1310.2990              1325.8664
 Red. masses --      3.3282                 1.1698                 1.2860
 Frc consts  --      2.9947                 1.1833                 1.3319
 IR Inten    --    170.6888                17.3567                 0.7993

                     22                     23                     24
                      A                      A                      A
 Frequencies --   1368.2116              1412.5683              1452.2778
 Red. masses --      1.2611                 1.3034                 1.2148
 Frc consts  --      1.3910                 1.5323                 1.5096
 IR Inten    --     48.7246                13.1501                 5.4306

                     25                     26                     27
                      A                      A                      A
 Frequencies --   1461.2756              1512.9036              1691.7650
 Red. masses --      1.1786                 1.0881                 4.1179
 Frc consts  --      1.4827                 1.4674                 6.9440
 IR Inten    --      3.7337                 9.9725               163.8519

                     28                     29                     30
                      A                      A                      A
 Frequencies --   1724.9613              3024.7293              3071.0380
 Red. masses --      4.5142                 1.0635                 1.0990
 Frc consts  --      7.9138                 5.7327                 6.1067
 IR Inten    --      8.1117                35.8922                18.0792

                     31                     32                     33
                      A                      A                      A
 Frequencies --   3143.1212              3171.4080              3189.2396
 Red. masses --      1.0844                 1.0641                 1.0579
 Frc consts  --      6.3120                 6.3060                 6.3397
 IR Inten    --     21.3903                 5.0897                 3.3924

                     34                     35                     36
                      A                      A                      A
 Frequencies --   3208.3665              3251.1064              3271.7266
 Red. masses --      1.0946                 1.1166                 1.1163
 Frc consts  --      6.6386                 6.9537                 7.0403
 IR Inten    --      9.5222                10.8126                11.1728

 - Thermochemistry -
 -------------------
 Temperature   298.150 Kelvin.  Pressure   1.00000 Atm.
 Atom     1 has atomic number  6 and mass  12.00000

 Molecular mass:    84.05751 amu.
 Principal axes and moments of inertia in atomic units:
                           1         2         3
     Eigenvalues --   301.92767 701.37360 796.15102
           X            0.99993   0.01169  -0.00152
           Y           -0.01177   0.99758  -0.06848
           Z            0.00072   0.06849   0.99765
 This molecule is an asymmetric top.
 Rotational symmetry number  1.
 Rotational temperatures (Kelvin)      0.28687     0.12349     0.10879
 Rotational constants (GHZ):           5.97740     2.57315     2.26683
 Zero-point vibrational energy     311348.4 (Joules/Mol)
                                   74.41406 (Kcal/Mol)
 Warning -- explicit consideration of   7 degrees of freedom as
           vibrations may cause significant error
 Vibrational temperatures:    123.27   195.54   251.76   399.71   470.59
          (Kelvin)            774.02   824.42   925.35  1013.82  1196.48
                             1247.49  1338.24  1364.97  1422.66  1450.69
                             1466.16  1530.77  1595.60  1778.03  1885.23
                             1907.63  1968.55  2032.37  2089.50  2102.45
                             2176.73  2434.07  2481.83  4351.91  4418.54
                             4522.25  4562.95  4588.60  4616.12  4677.62
                             4707.28

 Zero-point correction=                           0.118586 (Hartree/Particle)
 Thermal correction to Energy=                    0.125364
 Thermal correction to Enthalpy=                  0.126309
 Thermal correction to Gibbs Free Energy=         0.088034
 Sum of electronic and zero-point Energies=           -270.399960
 Sum of electronic and thermal Energies=              -270.393182
 Sum of electronic and thermal Enthalpies=            -270.392238
 Sum of electronic and thermal Free Energies=         -270.430512

                     E (Thermal)             CV                S
                      KCal/Mol        Cal/Mol-Kelvin    Cal/Mol-Kelvin
 Total                   78.667             23.807             80.556
 Electronic               0.000              0.000              0.000
 Translational            0.889              2.981             39.200
 Rotational               0.889              2.981             26.625
 Vibrational             76.890             17.845             14.731
 Vibration     1          0.601              1.959              3.756
 Vibration     2          0.614              1.917              2.861
 Vibration     3          0.627              1.873              2.381
 Vibration     4          0.679              1.715              1.547
 Vibration     5          0.711              1.621              1.274
 Vibration     6          0.893              1.166              0.570
 Vibration     7          0.929              1.090              0.498

 Optimization completed.
    -- Stationary point found.
 Normal termination of Gaussian 16 at Tue Oct 15 00:49:02 2019.
