 Gaussian 16, Revision A.03,
 Gaussian 16:  ES64L-G16RevA.03 25-Dec-2016

 --------------------------------
 #p b3lyp/6-31+g* opt=calcfc freq
 --------------------------------

 -------------------
 Title Card Required
 -------------------
 Symbolic Z-matrix:
 Charge =  0 Multiplicity = 1

 SCF Done:  E(RB3LYP) =  -270.224524151     A.U. after   14 cycles
 SCF Done:  E(RB3LYP) =  -270.282683107     A.U. after   14 cycles
 SCF Done:  E(RB3LYP) =  -270.370099699     A.U. after   13 cycles
 SCF Done:  E(RB3LYP) =  -270.423771869     A.U. after   12 cycles
 SCF Done:  E(RB3LYP) =  -270.460656597     A.U. after   12 cycles
 SCF Done:  E(RB3LYP) =  -270.459864321     A.U. after   12 cycles
 SCF Done:  E(RB3LYP) =  -270.478140099     A.U. after   12 cycles
 SCF Done:  E(RB3LYP) =  -270.491142307     A.U. after   12 cycles
 SCF Done:  E(RB3LYP) =  -270.496881873     A.U. after   12 cycles
 SCF Done:  E(RB3LYP) =  -270.501693852     A.U. after   12 cycles
 SCF Done:  E(RB3LYP) =  -270.518844881     A.U. after    9 cycles
 SCF Done:  E(RB3LYP) =  -270.518852740     A.U. after    9 cycles
 SCF Done:  E(RB3LYP) =  -270.518862102     A.U. after    9 cycles
 SCF Done:  E(RB3LYP) =  -270.518870277     A.U. after    9 cycles
 SCF Done:  E(RB3LYP) =  -270.518874900     A.U. after   10 cycles
 SCF Done:  E(RB3LYP) =  -270.518875958     A.U. after    9 cycles
 SCF Done:  E(RB3LYP) =  -270.518876355     A.U. after    9 cycles
 SCF Done:  E(RB3LYP) =  -270.518876560     A.U. after    8 cycles
 SCF Done:  E(RB3LYP) =  -270.518876576     A.U. after    8 cycles
 Optimization completed.
    -- Stationary point found.
 Normal termination of Gaussian 16 at Tue Oct 15 01:35:45 2019.

 ---------------------------------------------------------------------
 #P Geom=AllCheck Guess=TCheck SCRF=Check GenChk RB3LYP/6-31+G(d) Freq
 ---------------------------------------------------------------------

 Structure from the checkpoint file:  "R2.chk"
 -------------------
 Title Card Required
 -------------------
 Charge =  0 Multiplicity = 1

                         Standard orientation:
 ---------------------------------------------------------------------
 Center     Atomic      Atomic             Coordinates (Angstroms)
 Number     Number       Type             X           Y           Z
 ---------------------------------------------------------------------
      1          6           0        2.615522    0.591708   -0.143434
      2          1           0        3.162670   -0.075795   -0.802039
      3          1           0        3.102464    1.498665    0.196547
      4          6           0        1.370012    0.319283    0.254636
      5          1           0        0.807703    0.985297    0.908985
      6          8           0        0.717913   -0.821916   -0.116750
      7          6           0       -0.652428   -0.931488    0.296966
      8          1           0       -0.902725   -1.981405    0.112224
      9          1           0       -0.736637   -0.744778    1.377458
     10          6           0       -1.565566   -0.022371   -0.478309
     11          1           0       -1.484854   -0.091544   -1.563233
     12          6           0       -2.442589    0.816293    0.080588
     13          1           0       -2.538020    0.908715    1.161523
     14          1           0       -3.103609    1.435627   -0.520150
 ---------------------------------------------------------------------

 SCF Done:  E(RB3LYP) =  -270.518876576     A.U. after    1 cycles

 The electronic state is 1-A.
 Alpha  occ. eigenvalues --  -19.18539 -10.25608 -10.24501 -10.20970 -10.20411
 Alpha  occ. eigenvalues --  -10.17345  -1.06652  -0.80743  -0.75922  -0.68874
 Alpha  occ. eigenvalues --   -0.59186  -0.57683  -0.52199  -0.48693  -0.46807
 Alpha  occ. eigenvalues --   -0.44868  -0.41344  -0.39206  -0.39131  -0.34822
 Alpha  occ. eigenvalues --   -0.33812  -0.28314  -0.22963
 Alpha virt. eigenvalues --   -0.01940   0.00679   0.01286   0.02636   0.02890
 Alpha virt. eigenvalues --    0.03205   0.04682   0.05798   0.06414   0.06649
 Alpha virt. eigenvalues --    0.07297   0.08983   0.09528   0.10877   0.11618

 Mulliken charges:
               1
     1  C   -0.623660
     2  H    0.191345
     3  H    0.182094
     4  C    0.149505
     5  H    0.174189
     6  O   -0.311592
     7  C   -0.394881
     8  H    0.208038
     9  H    0.189225
    10  C    0.127694
    11  H    0.192873
    12  C   -0.458471
    13  H    0.182578
    14  H    0.191062
 Sum of Mulliken charges =  -0.00000

 Dipole moment (field-independent basis, Debye):
    X=             -1.6942    Y=              0.4827    Z=              0.7058  Tot=              1.8978
 Quadrupole moment (field-independent basis, Debye-Ang):
   XX=            -37.9661   YY=            -37.7338   ZZ=            -36.9619
   XY=              0.7172   XZ=             -0.4632   YZ=              0.9062

  Exact polarizability:  88.647  -1.423  58.617  -7.183   1.733  54.013
 Approx polarizability: 111.134  -3.906  82.749 -15.059   6.326  75.260

                      1                      2                      3
                      A                      A                      A
 Frequencies --     43.6754                87.3978               113.2083
 Red. masses --      2.1029                 2.7449                 2.2121
 Frc consts  --      0.0024                 0.0124                 0.0167
 IR Inten    --      0.6164                 0.8235                 3.3563

                      4                      5                      6
                      A                      A                      A
 Frequencies --    287.6584               345.9233               418.4061
 Red. masses --      2.7171                 2.3024                 2.3001
 Frc consts  --      0.1325                 0.1623                 0.2372
 IR Inten    --      3.3741                 5.5384                 1.9406

                      7                      8                      9
                      A                      A                      A
 Frequencies --    523.4781               665.9337               697.9264
 Red. masses --      2.1555                 1.7021                 1.5227
 Frc consts  --      0.3480                 0.4447                 0.4370
 IR Inten    --      0.3509                14.2247                 6.8393

                     10                     11                     12
                      A                      A                      A
 Frequencies --    843.3042               883.5850               932.9512
 Red. masses --      1.4162                 2.2572                 1.5675
 Frc consts  --      0.5934                 1.0383                 0.8038
 IR Inten    --     67.1085                 5.9753                 4.2801

                     13                     14                     15
                      A                      A                      A
 Frequencies --    959.0949               968.5043               991.9629
 Red. masses --      1.3317                 1.1221                 1.6512
 Frc consts  --      0.7217                 0.6202                 0.9573
 IR Inten    --     52.3129                28.6698                 1.2675

                     16                     17                     18
                      A                      A                      A
 Frequencies --   1031.7298              1097.3384              1158.1382
 Red. masses --      1.2098                 3.8600                 1.9975
 Frc consts  --      0.7587                 2.7386                 1.5785
 IR Inten    --     28.6227               129.4542               102.4837

                     19                     20                     21
                      A                      A                      A
 Frequencies --   1205.5044              1309.0127              1324.5174
 Red. masses --      2.3335                 1.2804                 1.2603
 Frc consts  --      1.9980                 1.2926                 1.3027
 IR Inten    --    138.4187                56.5369                 8.9454

                     22                     23                     24
                      A                      A                      A
 Frequencies --   1355.1871              1395.2400              1447.1458
 Red. masses --      1.1936                 1.2249                 1.2011
 Frc consts  --      1.2916                 1.4049                 1.4821
 IR Inten    --     17.1574                12.9224                10.2932

                     25                     26                     27
                      A                      A                      A
 Frequencies --   1473.6798              1512.6729              1711.1150
 Red. masses --      1.2040                 1.1002                 4.3905
 Frc consts  --      1.5405                 1.4832                 7.5740
 IR Inten    --     11.6082                 6.9516               151.9286

                     28                     29                     30
                      A                      A                      A
 Frequencies --   1716.5163              3027.9043              3099.3433
 Red. masses --      4.3239                 1.0665                 1.0973
 Frc consts  --      7.5062                 5.7608                 6.2101
 IR Inten    --     29.9198                50.5709                16.3948

                     31                     32                     33
                      A                      A                      A
 Frequencies --   3150.7748              3160.6064              3165.2180
 Red. masses --      1.0590                 1.0839                 1.0926
 Frc consts  --      6.1942                 6.3795                 6.4492
 IR Inten    --     11.2769                15.2229                 5.4402

                     34                     35                     36
                      A                      A                      A
 Frequencies --   3185.2186              3234.3422              3271.7865
 Red. masses --      1.0669                 1.1151                 1.1176
 Frc consts  --      6.3775                 6.8726                 7.0486
 IR Inten    --      0.2344                15.0286                 7.1851

 - Thermochemistry -
 -------------------
 Temperature   298.150 Kelvin.  Pressure   1.00000 Atm.
 Atom     1 has atomic number  6 and mass  12.00000

 Molecular mass:    84.05751 amu.
 Principal axes and moments of inertia in atomic units:
                           1         2         3
     Eigenvalues --   206.86008 970.691021087.26112
           X            0.99998   0.00415  -0.00534
           Y           -0.00407   0.99989   0.01429
           Z            0.00540  -0.01427   0.99988
 This molecule is an asymmetric top.
 Rotational symmetry number  1.
 Rotational temperatures (Kelvin)      0.41871     0.08923     0.07966
 Rotational constants (GHZ):           8.72445     1.85923     1.65990
 Zero-point vibrational energy     309808.9 (Joules/Mol)
                                   74.04610 (Kcal/Mol)
 Warning -- explicit consideration of   7 degrees of freedom as
           vibrations may cause significant error
 Vibrational temperatures:     62.84   125.75   162.88   413.88   497.71
          (Kelvin)            601.99   753.17   958.13  1004.16  1213.33
                             1271.28  1342.31  1379.92  1393.46  1427.21
                             1484.43  1578.83  1666.30  1734.45  1883.38
                             1905.69  1949.81  2007.44  2082.12  2120.30
                             2176.40  2461.91  2469.68  4356.48  4459.26
                             4533.26  4547.41  4554.04  4582.82  4653.50
                             4707.37

 Zero-point correction=                           0.118000 (Hartree/Particle)
 Thermal correction to Energy=                    0.125137
 Thermal correction to Enthalpy=                  0.126081
 Thermal correction to Gibbs Free Energy=         0.086141
 Sum of electronic and zero-point Energies=           -270.400877
 Sum of electronic and thermal Energies=              -270.393739
 Sum of electronic and thermal Enthalpies=            -270.392795
 Sum of electronic and thermal Free Energies=         -270.432735

                     E (Thermal)             CV                S
                      KCal/Mol        Cal/Mol-Kelvin    Cal/Mol-Kelvin
 Total                   78.525             24.147             84.061
 Electronic               0.000              0.000              0.000
 Translational            0.889              2.981             39.200
 Rotational               0.889              2.981             26.882
 Vibrational             76.747             18.185             17.979
 Vibration     1          0.595              1.980              5.085
 Vibration     2          0.601              1.958              3.717
 Vibration     3          0.607              1.939              3.213
 Vibration     4          0.685              1.697              1.488
 Vibration     5          0.724              1.584              1.185
 Vibration     6          0.781              1.430              0.897
 Vibration     7          0.878              1.198              0.602

 Optimization completed.
    -- Stationary point found.
 Normal termination of Gaussian 16 at Tue Oct 15 01:36:06 2019.
