 Gaussian 16, Revision A.03,
 Gaussian 16:  ES64L-G16RevA.03 25-Dec-2016

 ---------------------------
 #p opt freq b3lyp/6-31+g(d)
 ---------------------------

 -------------------
 Title Card Required
 -------------------
 Symbolic Z-matrix:
 Charge =  0 Multiplicity = 1

 SCF Done:  E(RB3LYP) =  -270.511700195     A.U. after   12 cycles
 SCF Done:  E(RB3LYP) =  -270.514139688     A.U. after   12 cycles
 SCF Done:  E(RB3LYP) =  -270.516237016     A.U. after   12 cycles
 SCF Done:  E(RB3LYP) =  -270.518546404     A.U. after   13 cycles
 SCF Done:  E(RB3LYP) =  -270.518811981     A.U. after   11 cycles
 SCF Done:  E(RB3LYP) =  -270.518862449     A.U. after   11 cycles
 SCF Done:  E(RB3LYP) =  -270.518870840     A.U. after   10 cycles
 SCF Done:  E(RB3LYP) =  -270.518874734     A.U. after   10 cycles
 SCF Done:  E(RB3LYP) =  -270.518875518     A.U. after    9 cycles
 SCF Done:  E(RB3LYP) =  -270.518876457     A.U. after    9 cycles
 SCF Done:  E(RB3LYP) =  -270.518876569     A.U. after    8 cycles
 SCF Done:  E(RB3LYP) =  -270.518876581     A.U. after    8 cycles
 Optimization completed.
    -- Stationary point found.
 Normal termination of Gaussian 16 at Wed Oct 16 16:27:31 2019.

 ---------------------------------------------------------------------
 #P Geom=AllCheck Guess=TCheck SCRF=Check GenChk RB3LYP/6-31+G(d) Freq
 ---------------------------------------------------------------------

 Structure from the checkpoint file:  "Rb4.chk"
 -------------------
 Title Card Required
 -------------------
 Charge =  0 Multiplicity = 1

                         Standard orientation:
 ---------------------------------------------------------------------
 Center     Atomic      Atomic             Coordinates (Angstroms)
 Number     Number       Type             X           Y           Z
 ---------------------------------------------------------------------
      1          6           0       -2.615351    0.591834   -0.143553
      2          1           0       -3.162303   -0.075416   -0.802598
      3          1           0       -3.102299    1.498695    0.196666
      4          6           0       -1.370010    0.319175    0.254885
      5          8           0       -0.717943   -0.821988   -0.116623
      6          6           0        0.652466   -0.931598    0.296745
      7          1           0        0.736902   -0.745213    1.377281
      8          1           0        0.902754   -1.981450    0.111640
      9          6           0        1.565439   -0.022203   -0.478411
     10          1           0        1.484625   -0.091049   -1.563345
     11          6           0        2.442496    0.816322    0.080659
     12          1           0        2.538060    0.908373    1.161628
     13          1           0        3.103444    1.435886   -0.519922
     14          1           0       -0.807884    0.984901    0.909684
 ---------------------------------------------------------------------

 SCF Done:  E(RB3LYP) =  -270.518876581     A.U. after    1 cycles

 The electronic state is 1-A.
 Alpha  occ. eigenvalues --  -19.18538 -10.25608 -10.24501 -10.20970 -10.20411
 Alpha  occ. eigenvalues --  -10.17345  -1.06653  -0.80743  -0.75922  -0.68874
 Alpha  occ. eigenvalues --   -0.59186  -0.57683  -0.52199  -0.48693  -0.46807
 Alpha  occ. eigenvalues --   -0.44868  -0.41344  -0.39206  -0.39131  -0.34821
 Alpha  occ. eigenvalues --   -0.33812  -0.28313  -0.22963
 Alpha virt. eigenvalues --   -0.01940   0.00679   0.01286   0.02636   0.02890
 Alpha virt. eigenvalues --    0.03205   0.04682   0.05798   0.06414   0.06649
 Alpha virt. eigenvalues --    0.07297   0.08983   0.09528   0.10878   0.11617

 Mulliken charges:
               1
     1  C   -0.623520
     2  H    0.191347
     3  H    0.182087
     4  C    0.149411
     5  O   -0.311579
     6  C   -0.394915
     7  H    0.189214
     8  H    0.208034
     9  C    0.127743
    10  H    0.192872
    11  C   -0.458514
    12  H    0.182575
    13  H    0.191063
    14  H    0.174184
 Sum of Mulliken charges =  -0.00000

 Dipole moment (field-independent basis, Debye):
    X=              1.6942    Y=              0.4826    Z=              0.7057  Tot=              1.8977
 Quadrupole moment (field-independent basis, Debye-Ang):
   XX=            -37.9669   YY=            -37.7348   ZZ=            -36.9599
   XY=             -0.7178   XZ=              0.4638   YZ=              0.9064

  Exact polarizability:  88.642   1.421  58.617   7.187   1.733  54.017
 Approx polarizability: 111.127   3.902  82.749  15.069   6.324  75.268

                      1                      2                      3
                      A                      A                      A
 Frequencies --     43.9827                87.4743               113.2485
 Red. masses --      2.1067                 2.7415                 2.2105
 Frc consts  --      0.0024                 0.0124                 0.0167
 IR Inten    --      0.6108                 0.8278                 3.3623

                      4                      5                      6
                      A                      A                      A
 Frequencies --    287.6186               345.9586               418.4206
 Red. masses --      2.7170                 2.3023                 2.3003
 Frc consts  --      0.1324                 0.1624                 0.2373
 IR Inten    --      3.3686                 5.5412                 1.9409

                      7                      8                      9
                      A                      A                      A
 Frequencies --    523.4837               665.9281               697.9494
 Red. masses --      2.1556                 1.7018                 1.5227
 Frc consts  --      0.3480                 0.4447                 0.4370
 IR Inten    --      0.3506                14.2279                 6.8520

                     10                     11                     12
                      A                      A                      A
 Frequencies --    843.3061               883.6232               932.9579
 Red. masses --      1.4163                 2.2570                 1.5675
 Frc consts  --      0.5934                 1.0383                 0.8039
 IR Inten    --     67.0867                 5.9740                 4.2855

                     13                     14                     15
                      A                      A                      A
 Frequencies --    959.1289               968.5033               991.9642
 Red. masses --      1.3317                 1.1221                 1.6512
 Frc consts  --      0.7218                 0.6202                 0.9573
 IR Inten    --     52.2987                28.6773                 1.2655

                     16                     17                     18
                      A                      A                      A
 Frequencies --   1031.7174              1097.4137              1158.1561
 Red. masses --      1.2097                 3.8582                 1.9976
 Frc consts  --      0.7587                 2.7376                 1.5786
 IR Inten    --     28.6319               129.3251               102.4417

                     19                     20                     21
                      A                      A                      A
 Frequencies --   1205.5124              1309.0357              1324.5103
 Red. masses --      2.3336                 1.2804                 1.2604
 Frc consts  --      1.9981                 1.2927                 1.3027
 IR Inten    --    138.5711                56.4941                 8.9856

                     22                     23                     24
                      A                      A                      A
 Frequencies --   1355.1607              1395.2615              1447.1331
 Red. masses --      1.1937                 1.2249                 1.2012
 Frc consts  --      1.2915                 1.4049                 1.4821
 IR Inten    --     17.1545                12.9185                10.3020

                     25                     26                     27
                      A                      A                      A
 Frequencies --   1473.6862              1512.6683              1711.1081
 Red. masses --      1.2040                 1.1002                 4.3907
 Frc consts  --      1.5406                 1.4832                 7.5743
 IR Inten    --     11.6100                 6.9529               151.7296

                     28                     29                     30
                      A                      A                      A
 Frequencies --   1716.4926              3027.8529              3099.3608
 Red. masses --      4.3231                 1.0665                 1.0972
 Frc consts  --      7.5047                 5.7607                 6.2101
 IR Inten    --     30.1167                50.5869                16.4014

                     31                     32                     33
                      A                      A                      A
 Frequencies --   3150.7042              3160.6072              3165.2319
 Red. masses --      1.0590                 1.0839                 1.0926
 Frc consts  --      6.1940                 6.3794                 6.4493
 IR Inten    --     11.2635                15.2188                 5.4623

                     34                     35                     36
                      A                      A                      A
 Frequencies --   3185.1570              3234.2928              3271.7752
 Red. masses --      1.0669                 1.1151                 1.1176
 Frc consts  --      6.3774                 6.8723                 7.0485
 IR Inten    --      0.2346                15.0301                 7.1828

 - Thermochemistry -
 -------------------
 Temperature   298.150 Kelvin.  Pressure   1.00000 Atm.
 Atom     1 has atomic number  6 and mass  12.00000

 Molecular mass:    84.05751 amu.
 Principal axes and moments of inertia in atomic units:
                           1         2         3
     Eigenvalues --   206.89242 970.617101087.19709
           X            0.99998  -0.00415   0.00534
           Y            0.00408   0.99989   0.01429
           Z           -0.00540  -0.01427   0.99988
 This molecule is an asymmetric top.
 Rotational symmetry number  1.
 Rotational temperatures (Kelvin)      0.41864     0.08924     0.07967
 Rotational constants (GHZ):           8.72309     1.85938     1.65999
 Zero-point vibrational energy     309811.2 (Joules/Mol)
                                   74.04665 (Kcal/Mol)
 Warning -- explicit consideration of   7 degrees of freedom as
           vibrations may cause significant error
 Vibrational temperatures:     63.28   125.86   162.94   413.82   497.76
          (Kelvin)            602.01   753.18   958.12  1004.19  1213.33
                             1271.34  1342.32  1379.97  1393.46  1427.22
                             1484.41  1578.93  1666.33  1734.46  1883.41
                             1905.67  1949.77  2007.47  2082.10  2120.31
                             2176.39  2461.90  2469.65  4356.40  4459.29
                             4533.16  4547.41  4554.06  4582.73  4653.43
                             4707.35

 Zero-point correction=                           0.118001 (Hartree/Particle)
 Thermal correction to Energy=                    0.125137
 Thermal correction to Enthalpy=                  0.126081
 Thermal correction to Gibbs Free Energy=         0.086149
 Sum of electronic and zero-point Energies=           -270.400876
 Sum of electronic and thermal Energies=              -270.393740
 Sum of electronic and thermal Enthalpies=            -270.392795
 Sum of electronic and thermal Free Energies=         -270.432727

                     E (Thermal)             CV                S
                      KCal/Mol        Cal/Mol-Kelvin    Cal/Mol-Kelvin
 Total                   78.525             24.146             84.044
 Electronic               0.000              0.000              0.000
 Translational            0.889              2.981             39.200
 Rotational               0.889              2.981             26.882
 Vibrational             76.747             18.185             17.962
 Vibration     1          0.595              1.980              5.071
 Vibration     2          0.601              1.958              3.716
 Vibration     3          0.607              1.938              3.212
 Vibration     4          0.685              1.697              1.488
 Vibration     5          0.724              1.583              1.185
 Vibration     6          0.781              1.430              0.897
 Vibration     7          0.878              1.198              0.602

 Optimization completed.
    -- Stationary point found.
 Normal termination of Gaussian 16 at Wed Oct 16 16:27:53 2019.
