 Gaussian 16, Revision A.03,
 Gaussian 16:  ES64L-G16RevA.03 25-Dec-2016

 ---------------------------------------------
 #p b3lyp/6-31+g* opt=(ts,noeigen,calcfc) freq
 ---------------------------------------------

 -------------------
 Title Card Required
 -------------------
 Symbolic Z-matrix:
 Charge =  0 Multiplicity = 1

 SCF Done:  E(RB3LYP) =  -270.140148409     A.U. after   20 cycles
 SCF Done:  E(RB3LYP) =  -270.202081138     A.U. after   16 cycles
 SCF Done:  E(RB3LYP) =  -270.255544079     A.U. after   15 cycles
 SCF Done:  E(RB3LYP) =  -270.298771891     A.U. after   14 cycles
 SCF Done:  E(RB3LYP) =  -270.336238468     A.U. after   14 cycles
 SCF Done:  E(RB3LYP) =  -270.370413911     A.U. after   14 cycles
 SCF Done:  E(RB3LYP) =  -270.400708464     A.U. after   15 cycles
 SCF Done:  E(RB3LYP) =  -270.410728137     A.U. after   14 cycles
 SCF Done:  E(RB3LYP) =  -270.410807131     A.U. after   13 cycles
 SCF Done:  E(RB3LYP) =  -270.410375559     A.U. after   14 cycles
 SCF Done:  E(RB3LYP) =  -270.403478954     A.U. after   13 cycles
 SCF Done:  E(RB3LYP) =  -270.403279715     A.U. after   14 cycles
 SCF Done:  E(RB3LYP) =  -270.403506164     A.U. after   14 cycles
 SCF Done:  E(RB3LYP) =  -270.403478164     A.U. after   14 cycles
 SCF Done:  E(RB3LYP) =  -270.403453894     A.U. after   13 cycles
 SCF Done:  E(RB3LYP) =  -270.403547862     A.U. after   13 cycles
 SCF Done:  E(RB3LYP) =  -270.403555127     A.U. after   12 cycles
 SCF Done:  E(RB3LYP) =  -270.403560908     A.U. after   12 cycles
 SCF Done:  E(RB3LYP) =  -270.403561391     A.U. after   10 cycles
 Optimization completed.
    -- Stationary point found.
 Normal termination of Gaussian 16 at Tue Oct 15 01:59:54 2019.

 ---------------------------------------------------------------------
 #P Geom=AllCheck Guess=TCheck SCRF=Check GenChk RB3LYP/6-31+G(d) Freq
 ---------------------------------------------------------------------

 Structure from the checkpoint file:  "ts.chk"
 -------------------
 Title Card Required
 -------------------
 Charge =  0 Multiplicity = 1

                         Standard orientation:
 ---------------------------------------------------------------------
 Center     Atomic      Atomic             Coordinates (Angstroms)
 Number     Number       Type             X           Y           Z
 ---------------------------------------------------------------------
      1          6           0       -1.391570    0.077150   -0.308918
      2          1           0       -2.456926    0.242069   -0.119513
      3          1           0       -1.210686   -0.098261   -1.406445
      4          6           0       -0.605873    1.249138    0.068862
      5          1           0       -1.009457    2.247604    0.233034
      6          8           0        0.679452    1.206767    0.148477
      7          6           0        1.488420   -0.065087   -0.084484
      8          1           0        2.115177    0.188365   -0.948410
      9          1           0        2.145889   -0.055094    0.809261
     10          6           0        0.602425   -1.279743   -0.264391
     11          1           0        1.150067   -2.178643    0.037559
     12          6           0       -0.761395   -1.144226    0.354390
     13          1           0       -1.383508   -2.019364    0.141724
     14          1           0       -0.778210   -1.004200    1.472221
 ---------------------------------------------------------------------

 SCF Done:  E(RB3LYP) =  -270.403561391     A.U. after    3 cycles

 The electronic state is 1-A.
 Alpha  occ. eigenvalues --  -19.24663 -10.31616 -10.25559 -10.21279 -10.19044
 Alpha  occ. eigenvalues --  -10.14513  -1.12406  -0.81809  -0.78234  -0.66780
 Alpha  occ. eigenvalues --   -0.63823  -0.55842  -0.51857  -0.49778  -0.48833
 Alpha  occ. eigenvalues --   -0.44616  -0.41958  -0.40549  -0.38887  -0.35516
 Alpha  occ. eigenvalues --   -0.33805  -0.31983  -0.13346
 Alpha virt. eigenvalues --   -0.09933  -0.00269   0.01980   0.02245   0.02952
 Alpha virt. eigenvalues --    0.03570   0.04857   0.06415   0.06563   0.07644
 Alpha virt. eigenvalues --    0.08301   0.09779   0.10646   0.11029   0.11766

 Mulliken charges:
               1
     1  C   -0.676796
     2  H    0.208846
     3  H    0.248122
     4  C    0.104733
     5  H    0.212355
     6  O   -0.209320
     7  C   -0.409195
     8  H    0.205190
     9  H    0.176827
    10  C   -0.360843
    11  H    0.155291
    12  C   -0.031440
    13  H    0.213174
    14  H    0.163058
 Sum of Mulliken charges =  -0.00000

 Dipole moment (field-independent basis, Debye):
    X=             -1.3363    Y=              2.4433    Z=              0.8038  Tot=              2.8985
 Quadrupole moment (field-independent basis, Debye-Ang):
   XX=            -34.8020   YY=            -39.0721   ZZ=            -42.1078
   XY=             -1.5401   XZ=              0.9723   YZ=             -3.0220

  Exact polarizability:  84.085 -19.218 110.171  -6.514  13.883  71.965
 Approx polarizability: 156.224-127.038 404.226 -30.971  77.303 113.687

 ******    1 imaginary frequencies (negative Signs) ******

                      1                      2                      3
                      A                      A                      A
 Frequencies --   -316.3359               234.5788               367.4952
 Red. masses --      1.7560                 2.6049                 1.9684
 Frc consts  --      0.1035                 0.0845                 0.1566
 IR Inten    --      2.5446                18.1596                30.7719

                      4                      5                      6
                      A                      A                      A
 Frequencies --    381.8941               478.7988               578.5697
 Red. masses --      1.8205                 3.3196                 2.7402
 Frc consts  --      0.1564                 0.4484                 0.5404
 IR Inten    --     11.8123               158.7109                56.5931

                      7                      8                      9
                      A                      A                      A
 Frequencies --    641.0425               705.4011               776.3079
 Red. masses --      1.9100                 3.7695                 1.4899
 Frc consts  --      0.4624                 1.1051                 0.5290
 IR Inten    --    142.4340                 4.7085                 7.2918

                     10                     11                     12
                      A                      A                      A
 Frequencies --    865.9030               925.2302               980.6266
 Red. masses --      2.6770                 2.3032                 2.1214
 Frc consts  --      1.1826                 1.1617                 1.2019
 IR Inten    --     18.3648                48.2176                69.6015

                     13                     14                     15
                      A                      A                      A
 Frequencies --   1001.9779              1017.9141              1047.4222
 Red. masses --      2.2057                 1.5940                 1.8989
 Frc consts  --      1.3047                 0.9731                 1.2274
 IR Inten    --     16.5286               110.6921                28.1098

                     16                     17                     18
                      A                      A                      A
 Frequencies --   1100.2141              1124.3060              1170.4081
 Red. masses --      1.3744                 1.3771                 1.0737
 Frc consts  --      0.9802                 1.0256                 0.8666
 IR Inten    --    133.6980                10.7315                25.0667

                     19                     20                     21
                      A                      A                      A
 Frequencies --   1207.7667              1269.8683              1303.2258
 Red. masses --      1.3333                 1.7168                 1.6636
 Frc consts  --      1.1459                 1.6312                 1.6647
 IR Inten    --     22.9948               125.2652                35.4660

                     22                     23                     24
                      A                      A                      A
 Frequencies --   1347.8091              1373.4055              1403.2470
 Red. masses --      1.3248                 1.5620                 1.1790
 Frc consts  --      1.4180                 1.7359                 1.3678
 IR Inten    --      8.2259                18.9718                20.8143

                     25                     26                     27
                      A                      A                      A
 Frequencies --   1436.0263              1479.5890              1554.1153
 Red. masses --      1.4198                 1.1091                 1.2427
 Frc consts  --      1.7250                 1.4305                 1.7684
 IR Inten    --     12.3381                 0.7977                65.8371

                     28                     29                     30
                      A                      A                      A
 Frequencies --   1570.7042              2715.1922              2749.4226
 Red. masses --      1.9787                 1.0721                 1.0636
 Frc consts  --      2.8761                 4.6569                 4.7369
 IR Inten    --     95.5074               323.4600                85.5556

                     31                     32                     33
                      A                      A                      A
 Frequencies --   2867.1470              3022.4032              3079.9423
 Red. masses --      1.0818                 1.0835                 1.0837
 Frc consts  --      5.2396                 5.8314                 6.0570
 IR Inten    --    261.8638                72.1412                45.1254

                     34                     35                     36
                      A                      A                      A
 Frequencies --   3095.6007              3107.4320              3183.6982
 Red. masses --      1.0853                 1.0861                 1.0906
 Frc consts  --      6.1275                 6.1788                 6.5130
 IR Inten    --      9.2496                17.5529                 4.3546

 - Thermochemistry -
 -------------------
 Temperature   298.150 Kelvin.  Pressure   1.00000 Atm.
 Atom     1 has atomic number  6 and mass  12.00000

 Molecular mass:    84.05751 amu.
 Principal axes and moments of inertia in atomic units:
                           1         2         3
     Eigenvalues --   363.08782 374.88980 668.01537
           X            0.89222  -0.45160   0.00250
           Y            0.45158   0.89206  -0.01734
           Z            0.00560   0.01660   0.99985
 This molecule is an asymmetric top.
 Rotational symmetry number  1.
 Rotational temperatures (Kelvin)      0.23855     0.23104     0.12966
 Rotational constants (GHZ):           4.97054     4.81406     2.70165
    1 imaginary frequencies ignored.
 Zero-point vibrational energy     306032.8 (Joules/Mol)
                                   73.14359 (Kcal/Mol)
 Warning -- explicit consideration of   5 degrees of freedom as
           vibrations may cause significant error
 Vibrational temperatures:    337.51   528.74   549.46   688.88   832.43
          (Kelvin)            922.32  1014.91  1116.93  1245.84  1331.20
                             1410.90  1441.62  1464.55  1507.01  1582.96
                             1617.63  1683.96  1737.71  1827.06  1875.05
                             1939.20  1976.02  2018.96  2066.12  2128.80
                             2236.03  2259.89  3906.56  3955.81  4125.18
                             4348.56  4431.35  4453.88  4470.90  4580.63

 Zero-point correction=                           0.116562 (Hartree/Particle)
 Thermal correction to Energy=                    0.121722
 Thermal correction to Enthalpy=                  0.122666
 Thermal correction to Gibbs Free Energy=         0.088312
 Sum of electronic and zero-point Energies=           -270.287000
 Sum of electronic and thermal Energies=              -270.281839
 Sum of electronic and thermal Enthalpies=            -270.280895
 Sum of electronic and thermal Free Energies=         -270.315249

                     E (Thermal)             CV                S
                      KCal/Mol        Cal/Mol-Kelvin    Cal/Mol-Kelvin
 Total                   76.382             20.020             72.304
 Electronic               0.000              0.000              0.000
 Translational            0.889              2.981             39.200
 Rotational               0.889              2.981             26.011
 Vibrational             74.604             14.059              7.093
 Vibration     1          0.654              1.788              1.844
 Vibration     2          0.740              1.539              1.090
 Vibration     3          0.751              1.509              1.032
 Vibration     4          0.835              1.297              0.713
 Vibration     5          0.935              1.078              0.488

                           ! Non-Optimized Parameters !
 Normal termination of Gaussian 16 at Tue Oct 15 02:00:18 2019.
