 Gaussian 16, Revision A.03,
 Gaussian 16:  ES64L-G16RevA.03 25-Dec-2016

 -----------------------------------------------
 #p opt=(calcfc,ts,noeigen) freq b3lyp/6-31+g(d)
 -----------------------------------------------

 -------------------
 Title Card Required
 -------------------
 Symbolic Z-matrix:
 Charge =  0 Multiplicity = 1

 SCF Done:  E(RB3LYP) =  -270.405049388     A.U. after   18 cycles
 SCF Done:  E(RB3LYP) =  -270.413569223     A.U. after   14 cycles
 SCF Done:  E(RB3LYP) =  -270.418025677     A.U. after   14 cycles
 SCF Done:  E(RB3LYP) =  -270.422033321     A.U. after   14 cycles
 SCF Done:  E(RB3LYP) =  -270.427094050     A.U. after   13 cycles
 SCF Done:  E(RB3LYP) =  -270.432467767     A.U. after   13 cycles
 SCF Done:  E(RB3LYP) =  -270.435527985     A.U. after   13 cycles
 SCF Done:  E(RB3LYP) =  -270.432561119     A.U. after   13 cycles
 SCF Done:  E(RB3LYP) =  -270.433736601     A.U. after   12 cycles
 SCF Done:  E(RB3LYP) =  -270.427951477     A.U. after   13 cycles
 SCF Done:  E(RB3LYP) =  -270.429324393     A.U. after   13 cycles
 SCF Done:  E(RB3LYP) =  -270.430627935     A.U. after   13 cycles
 SCF Done:  E(RB3LYP) =  -270.430910814     A.U. after   12 cycles
 SCF Done:  E(RB3LYP) =  -270.430927848     A.U. after   11 cycles
 SCF Done:  E(RB3LYP) =  -270.430926197     A.U. after   11 cycles
 SCF Done:  E(RB3LYP) =  -270.430930264     A.U. after   12 cycles
 SCF Done:  E(RB3LYP) =  -270.430933055     A.U. after   10 cycles
 SCF Done:  E(RB3LYP) =  -270.430933207     A.U. after   10 cycles
 SCF Done:  E(RB3LYP) =  -270.430933261     A.U. after   10 cycles
 Optimization completed.
    -- Stationary point found.
 Normal termination of Gaussian 16 at Tue Oct 15 10:10:59 2019.

 ---------------------------------------------------------------------
 #P Geom=AllCheck Guess=TCheck SCRF=Check GenChk RB3LYP/6-31+G(d) Freq
 ---------------------------------------------------------------------

 Structure from the checkpoint file:  "ts.chk"
 -------------------
 Title Card Required
 -------------------
 Charge =  0 Multiplicity = 1

                         Standard orientation:
 ---------------------------------------------------------------------
 Center     Atomic      Atomic             Coordinates (Angstroms)
 Number     Number       Type             X           Y           Z
 ---------------------------------------------------------------------
      1          6           0        1.134057   -0.845338   -0.261978
      2          1           0        1.913422   -1.509268    0.128428
      3          1           0        1.209794   -0.890206   -1.361481
      4          6           0       -0.173816   -1.317483    0.212810
      5          1           0       -0.340250   -2.328931    0.570647
      6          8           0       -1.310708   -0.669615   -0.019924
      7          6           0       -1.226785    0.763911   -0.093461
      8          1           0       -1.640868    1.022812   -1.085532
      9          1           0       -1.986149    1.070137    0.638806
     10          6           0        0.091699    1.384999    0.143261
     11          1           0        0.113340    2.429464   -0.165864
     12          6           0        1.379230    0.652680    0.140223
     13          1           0        2.119183    1.127547   -0.531998
     14          1           0        1.870883    0.602753    1.121255
 ---------------------------------------------------------------------

 SCF Done:  E(RB3LYP) =  -270.430933261     A.U. after    1 cycles

 The electronic state is 1-A.
 Alpha  occ. eigenvalues --  -19.21496 -10.25985 -10.25217 -10.20590 -10.19559
 Alpha  occ. eigenvalues --  -10.17116  -1.09476  -0.80304  -0.77685  -0.66636
 Alpha  occ. eigenvalues --   -0.63971  -0.53716  -0.50802  -0.48569  -0.48209
 Alpha  occ. eigenvalues --   -0.44162  -0.41285  -0.40835  -0.37845  -0.35252
 Alpha  occ. eigenvalues --   -0.34278  -0.31297  -0.14606
 Alpha virt. eigenvalues --   -0.07450   0.00424   0.02438   0.02708   0.03393
 Alpha virt. eigenvalues --    0.04502   0.05177   0.06380   0.06890   0.07975
 Alpha virt. eigenvalues --    0.08837   0.09903   0.11430   0.11881   0.12618

 Mulliken charges:
               1
     1  C   -0.364963
     2  H    0.204730
     3  H    0.231740
     4  C   -0.092868
     5  H    0.191035
     6  O   -0.221014
     7  C   -0.435214
     8  H    0.210769
     9  H    0.230001
    10  C    0.175678
    11  H    0.169454
    12  C   -0.707875
    13  H    0.184260
    14  H    0.224268
 Sum of Mulliken charges =  -0.00000

 Dipole moment (field-independent basis, Debye):
    X=              0.4011    Y=             -0.6507    Z=             -0.9135  Tot=              1.1911
 Quadrupole moment (field-independent basis, Debye-Ang):
   XX=            -37.1764   YY=            -37.1756   ZZ=            -39.3687
   XY=             -2.9849   XZ=              0.0980   YZ=             -2.1510

  Exact polarizability:  71.551  -0.107 108.742  -1.203   2.103  56.038
 Approx polarizability: 102.079  21.060 344.367  -0.127   7.425  79.721

 ******    1 imaginary frequencies (negative Signs) ******

                      1                      2                      3
                      A                      A                      A
 Frequencies --   -270.3485               144.8772               255.0792
 Red. masses --      1.8213                 1.8927                 2.2712
 Frc consts  --      0.0784                 0.0234                 0.0871
 IR Inten    --     15.4505                 9.8509                17.9111

                      4                      5                      6
                      A                      A                      A
 Frequencies --    430.8030               517.4602               550.4201
 Red. masses --      2.8289                 3.4023                 1.8650
 Frc consts  --      0.3093                 0.5368                 0.3329
 IR Inten    --     69.1677                 4.5835                 8.7717

                      7                      8                      9
                      A                      A                      A
 Frequencies --    668.6948               811.3598               820.9355
 Red. masses --      1.4755                 1.8690                 3.9697
 Frc consts  --      0.3887                 0.7249                 1.5763
 IR Inten    --     73.7996                19.7801                29.5061

                     10                     11                     12
                      A                      A                      A
 Frequencies --    832.7824               917.7554               931.9899
 Red. masses --      2.7014                 1.8738                 2.2227
 Frc consts  --      1.1038                 0.9299                 1.1375
 IR Inten    --      5.8589               109.3797                33.1609

                     13                     14                     15
                      A                      A                      A
 Frequencies --    992.0872              1007.6006              1056.1686
 Red. masses --      2.0159                 2.0627                 2.1992
 Frc consts  --      1.1690                 1.2338                 1.4454
 IR Inten    --      7.1726                17.9352                 6.2020

                     16                     17                     18
                      A                      A                      A
 Frequencies --   1146.7034              1156.9798              1190.2688
 Red. masses --      1.2190                 1.7740                 1.2544
 Frc consts  --      0.9444                 1.3991                 1.0471
 IR Inten    --     80.7547                19.7781                10.6563

                     19                     20                     21
                      A                      A                      A
 Frequencies --   1208.3815              1246.0689              1266.5123
 Red. masses --      1.1449                 1.3112                 1.6188
 Frc consts  --      0.9850                 1.1995                 1.5299
 IR Inten    --      6.8849                 2.1489                30.1802

                     22                     23                     24
                      A                      A                      A
 Frequencies --   1349.8365              1378.4816              1439.5016
 Red. masses --      1.3837                 1.4914                 2.0986
 Frc consts  --      1.4854                 1.6697                 2.5622
 IR Inten    --     22.1024                 8.7583                19.0022

                     25                     26                     27
                      A                      A                      A
 Frequencies --   1459.1521              1496.9891              1511.7153
 Red. masses --      1.2465                 1.4921                 1.1674
 Frc consts  --      1.5636                 1.9701                 1.5719
 IR Inten    --     12.6437                62.6520                16.5600

                     28                     29                     30
                      A                      A                      A
 Frequencies --   1533.6825              2935.8135              2961.7476
 Red. masses --      1.0988                 1.0786                 1.0746
 Frc consts  --      1.5228                 5.4772                 5.5540
 IR Inten    --      2.2350               135.6826                41.9932

                     31                     32                     33
                      A                      A                      A
 Frequencies --   2978.6795              3010.0593              3042.5572
 Red. masses --      1.0728                 1.0812                 1.0821
 Frc consts  --      5.6079                 5.7716                 5.9020
 IR Inten    --     33.7606                20.3069                 3.8738

                     34                     35                     36
                      A                      A                      A
 Frequencies --   3083.1423              3151.8568              3215.3278
 Red. masses --      1.0880                 1.0857                 1.0896
 Frc consts  --      6.0937                 6.3544                 6.6369
 IR Inten    --     30.4861                16.1727                 2.3138

 - Thermochemistry -
 -------------------
 Temperature   298.150 Kelvin.  Pressure   1.00000 Atm.
 Atom     1 has atomic number  6 and mass  12.00000

 Molecular mass:    84.05751 amu.
 Principal axes and moments of inertia in atomic units:
                           1         2         3
     Eigenvalues --   345.47946 400.52657 693.63399
           X            0.97869  -0.20536  -0.00120
           Y            0.20533   0.97861  -0.01287
           Z            0.00382   0.01235   0.99992
 This molecule is an asymmetric top.
 Rotational symmetry number  1.
 Rotational temperatures (Kelvin)      0.25071     0.21625     0.12487
 Rotational constants (GHZ):           5.22387     4.50592     2.60186
    1 imaginary frequencies ignored.
 Zero-point vibrational energy     309243.5 (Joules/Mol)
                                   73.91096 (Kcal/Mol)
 Warning -- explicit consideration of   5 degrees of freedom as
           vibrations may cause significant error
 Vibrational temperatures:    208.45   367.00   619.83   744.51   791.93
          (Kelvin)            962.10  1167.37  1181.14  1198.19  1320.45
                             1340.93  1427.39  1449.71  1519.59  1649.85
                             1664.64  1712.53  1738.59  1792.82  1822.23
                             1942.11  1983.33  2071.12  2099.39  2153.83
                             2175.02  2206.63  4223.98  4261.29  4285.66
                             4330.80  4377.56  4435.95  4534.82  4626.14

 Zero-point correction=                           0.117785 (Hartree/Particle)
 Thermal correction to Energy=                    0.123119
 Thermal correction to Enthalpy=                  0.124064
 Thermal correction to Gibbs Free Energy=         0.089142
 Sum of electronic and zero-point Energies=           -270.313149
 Sum of electronic and thermal Energies=              -270.307814
 Sum of electronic and thermal Enthalpies=            -270.306870
 Sum of electronic and thermal Free Energies=         -270.341792

                     E (Thermal)             CV                S
                      KCal/Mol        Cal/Mol-Kelvin    Cal/Mol-Kelvin
 Total                   77.259             19.987             73.500
 Electronic               0.000              0.000              0.000
 Translational            0.889              2.981             39.200
 Rotational               0.889              2.981             26.065
 Vibrational             75.481             14.025              8.234
 Vibration     1          0.616              1.908              2.738
 Vibration     2          0.665              1.754              1.695
 Vibration     3          0.792              1.403              0.856
 Vibration     4          0.872              1.211              0.616
 Vibration     5          0.906              1.139              0.543

 Optimization completed.
    -- Stationary point found.
 Normal termination of Gaussian 16 at Tue Oct 15 10:11:22 2019.
