 Gaussian 16, Revision A.03,
 Gaussian 16:  ES64L-G16RevA.03 25-Dec-2016

 -----------------------------------------------
 #p opt=(calcfc,ts,noeigen) freq b3lyp/6-31+g(d)
 -----------------------------------------------

 -------------------
 Title Card Required
 -------------------
 Symbolic Z-matrix:
 Charge =  0 Multiplicity = 1

 SCF Done:  E(RB3LYP) =  -270.397452921     A.U. after   16 cycles
 SCF Done:  E(RB3LYP) =  -270.420748553     A.U. after   13 cycles
 SCF Done:  E(RB3LYP) =  -270.434492311     A.U. after   13 cycles
 SCF Done:  E(RB3LYP) =  -270.445496342     A.U. after   14 cycles
 SCF Done:  E(RB3LYP) =  -270.455212820     A.U. after   13 cycles
 SCF Done:  E(RB3LYP) =  -270.434721605     A.U. after   14 cycles
 SCF Done:  E(RB3LYP) =  -270.416045220     A.U. after   14 cycles
 SCF Done:  E(RB3LYP) =  -270.425442381     A.U. after   13 cycles
 SCF Done:  E(RB3LYP) =  -270.422395297     A.U. after   13 cycles
 SCF Done:  E(RB3LYP) =  -270.420445979     A.U. after   13 cycles
 SCF Done:  E(RB3LYP) =  -270.437180720     A.U. after   12 cycles
 SCF Done:  E(RB3LYP) =  -270.436595224     A.U. after   12 cycles
 SCF Done:  E(RB3LYP) =  -270.434598318     A.U. after   13 cycles
 SCF Done:  E(RB3LYP) =  -270.432858516     A.U. after   13 cycles
 SCF Done:  E(RB3LYP) =  -270.430781489     A.U. after   13 cycles
 SCF Done:  E(RB3LYP) =  -270.430728030     A.U. after   13 cycles
 SCF Done:  E(RB3LYP) =  -270.430901823     A.U. after   13 cycles
 SCF Done:  E(RB3LYP) =  -270.430931403     A.U. after   12 cycles
 SCF Done:  E(RB3LYP) =  -270.430933011     A.U. after   11 cycles
 Optimization completed.
    -- Stationary point found.
 Normal termination of Gaussian 16 at Tue Oct 15 10:46:40 2019.

 ---------------------------------------------------------------------
 #P Geom=AllCheck Guess=TCheck SCRF=Check GenChk RB3LYP/6-31+G(d) Freq
 ---------------------------------------------------------------------

 Structure from the checkpoint file:  "tsb.chk"
 -------------------
 Title Card Required
 -------------------
 Charge =  0 Multiplicity = 1

                         Standard orientation:
 ---------------------------------------------------------------------
 Center     Atomic      Atomic             Coordinates (Angstroms)
 Number     Number       Type             X           Y           Z
 ---------------------------------------------------------------------
      1          6           0       -1.135395   -0.844435   -0.261131
      2          1           0       -1.212918   -0.890513   -1.360471
      3          1           0       -1.914910   -1.507121    0.131110
      4          6           0        0.172621   -1.317599    0.212591
      5          8           0        1.309911   -0.671023   -0.020998
      6          6           0        1.228056    0.762871   -0.092387
      7          1           0        1.986278    1.066527    0.642188
      8          1           0        1.644718    1.022893   -1.083020
      9          6           0       -0.090363    1.385298    0.142085
     10          1           0       -0.111349    2.430007   -0.166212
     11          6           0       -1.378498    0.654030    0.139912
     12          1           0       -1.870260    0.605448    1.120993
     13          1           0       -2.117883    1.129450   -0.532517
     14          1           0        0.338517   -2.329496    0.569490
 ---------------------------------------------------------------------

 SCF Done:  E(RB3LYP) =  -270.430933011     A.U. after    1 cycles

 The electronic state is 1-A.
 Alpha  occ. eigenvalues --  -19.21493 -10.25979 -10.25217 -10.20585 -10.19558
 Alpha  occ. eigenvalues --  -10.17121  -1.09474  -0.80301  -0.77682  -0.66634
 Alpha  occ. eigenvalues --   -0.63968  -0.53711  -0.50801  -0.48559  -0.48212
 Alpha  occ. eigenvalues --   -0.44167  -0.41281  -0.40833  -0.37847  -0.35249
 Alpha  occ. eigenvalues --   -0.34281  -0.31290  -0.14604
 Alpha virt. eigenvalues --   -0.07449   0.00427   0.02439   0.02708   0.03395
 Alpha virt. eigenvalues --    0.04501   0.05173   0.06382   0.06892   0.07978
 Alpha virt. eigenvalues --    0.08837   0.09903   0.11433   0.11887   0.12616

 Mulliken charges:
               1
     1  C   -0.364722
     2  H    0.231713
     3  H    0.204696
     4  C   -0.092717
     5  O   -0.220993
     6  C   -0.436272
     7  H    0.230061
     8  H    0.210715
     9  C    0.175720
    10  H    0.169560
    11  C   -0.707236
    12  H    0.224213
    13  H    0.184317
    14  H    0.190944
 Sum of Mulliken charges =  -0.00000

 Dipole moment (field-independent basis, Debye):
    X=             -0.4008    Y=             -0.6474    Z=             -0.9069  Tot=              1.1841
 Quadrupole moment (field-independent basis, Debye-Ang):
   XX=            -37.1674   YY=            -37.1808   ZZ=            -39.3658
   XY=              2.9834   XZ=             -0.0940   YZ=             -2.1417

  Exact polarizability:  71.558   0.144 108.757   1.211   2.069  56.015
 Approx polarizability: 102.057 -20.863 344.521   0.150   7.272  79.690

 ******    1 imaginary frequencies (negative Signs) ******

                      1                      2                      3
                      A                      A                      A
 Frequencies --   -270.5220               145.0779               254.5689
 Red. masses --      1.8197                 1.8930                 2.2739
 Frc consts  --      0.0785                 0.0235                 0.0868
 IR Inten    --     15.6460                 9.7907                17.7445

                      4                      5                      6
                      A                      A                      A
 Frequencies --    430.4698               517.4775               550.2242
 Red. masses --      2.8189                 3.4155                 1.8661
 Frc consts  --      0.3078                 0.5389                 0.3329
 IR Inten    --     69.6215                 4.6478                 8.7330

                      7                      8                      9
                      A                      A                      A
 Frequencies --    668.3132               811.5888               820.7301
 Red. masses --      1.4760                 1.8730                 3.9369
 Frc consts  --      0.3884                 0.7269                 1.5624
 IR Inten    --     73.4852                19.5147                29.2958

                     10                     11                     12
                      A                      A                      A
 Frequencies --    832.9925               917.8286               931.7619
 Red. masses --      2.7053                 1.8753                 2.2210
 Frc consts  --      1.1060                 0.9308                 1.1361
 IR Inten    --      5.9950               109.2253                33.1905

                     13                     14                     15
                      A                      A                      A
 Frequencies --    992.0726              1007.5619              1056.1699
 Red. masses --      2.0193                 2.0616                 2.1986
 Frc consts  --      1.1709                 1.2331                 1.4450
 IR Inten    --      7.1433                17.8405                 6.1846

                     16                     17                     18
                      A                      A                      A
 Frequencies --   1146.5441              1156.4101              1190.2637
 Red. masses --      1.2251                 1.7563                 1.2540
 Frc consts  --      0.9488                 1.3838                 1.0468
 IR Inten    --     82.9507                18.0663                10.7606

                     19                     20                     21
                      A                      A                      A
 Frequencies --   1208.5776              1246.0349              1266.8496
 Red. masses --      1.1460                 1.3117                 1.6190
 Frc consts  --      0.9863                 1.1999                 1.5309
 IR Inten    --      6.8350                 2.1597                30.0520

                     22                     23                     24
                      A                      A                      A
 Frequencies --   1349.9333              1378.6155              1439.3946
 Red. masses --      1.3844                 1.4913                 2.0971
 Frc consts  --      1.4864                 1.6699                 2.5599
 IR Inten    --     22.2031                 8.7885                18.9585

                     25                     26                     27
                      A                      A                      A
 Frequencies --   1459.3071              1497.0516              1511.7926
 Red. masses --      1.2457                 1.4886                 1.1703
 Frc consts  --      1.5630                 1.9657                 1.5760
 IR Inten    --     12.5943                62.2609                17.0450

                     28                     29                     30
                      A                      A                      A
 Frequencies --   1533.6273              2935.9864              2962.3947
 Red. masses --      1.0989                 1.0786                 1.0746
 Frc consts  --      1.5228                 5.4780                 5.5564
 IR Inten    --      2.2542               135.1798                41.9301

                     31                     32                     33
                      A                      A                      A
 Frequencies --   2978.5821              3009.6116              3042.1115
 Red. masses --      1.0728                 1.0811                 1.0821
 Frc consts  --      5.6076                 5.7697                 5.9004
 IR Inten    --     33.8139                20.4535                 3.8550

                     34                     35                     36
                      A                      A                      A
 Frequencies --   3082.9529              3152.1110              3214.9882
 Red. masses --      1.0880                 1.0857                 1.0896
 Frc consts  --      6.0928                 6.3556                 6.6354
 IR Inten    --     30.5367                16.0629                 2.3349

 - Thermochemistry -
 -------------------
 Temperature   298.150 Kelvin.  Pressure   1.00000 Atm.
 Atom     1 has atomic number  6 and mass  12.00000

 Molecular mass:    84.05751 amu.
 Principal axes and moments of inertia in atomic units:
                           1         2         3
     Eigenvalues --   345.51283 400.55517 693.82075
           X            0.97869   0.20536   0.00125
           Y           -0.20532   0.97861  -0.01283
           Z           -0.00386   0.01230   0.99992
 This molecule is an asymmetric top.
 Rotational symmetry number  1.
 Rotational temperatures (Kelvin)      0.25068     0.21623     0.12484
 Rotational constants (GHZ):           5.22337     4.50560     2.60116
    1 imaginary frequencies ignored.
 Zero-point vibrational energy     309234.5 (Joules/Mol)
                                   73.90883 (Kcal/Mol)
 Warning -- explicit consideration of   5 degrees of freedom as
           vibrations may cause significant error
 Vibrational temperatures:    208.73   366.27   619.35   744.53   791.65
          (Kelvin)            961.55  1167.70  1180.85  1198.49  1320.55
                             1340.60  1427.37  1449.66  1519.59  1649.62
                             1663.82  1712.52  1738.87  1792.77  1822.71
                             1942.25  1983.52  2070.97  2099.62  2153.92
                             2175.13  2206.55  4224.23  4262.23  4285.52
                             4330.16  4376.92  4435.68  4535.18  4625.65

 Zero-point correction=                           0.117781 (Hartree/Particle)
 Thermal correction to Energy=                    0.123117
 Thermal correction to Enthalpy=                  0.124061
 Thermal correction to Gibbs Free Energy=         0.089138
 Sum of electronic and zero-point Energies=           -270.313152
 Sum of electronic and thermal Energies=              -270.307816
 Sum of electronic and thermal Enthalpies=            -270.306872
 Sum of electronic and thermal Free Energies=         -270.341795

                     E (Thermal)             CV                S
                      KCal/Mol        Cal/Mol-Kelvin    Cal/Mol-Kelvin
 Total                   77.257             19.989             73.503
 Electronic               0.000              0.000              0.000
 Translational            0.889              2.981             39.200
 Rotational               0.889              2.981             26.065
 Vibrational             75.480             14.028              8.237
 Vibration     1          0.616              1.908              2.736
 Vibration     2          0.665              1.755              1.699
 Vibration     3          0.792              1.404              0.857
 Vibration     4          0.872              1.211              0.616
 Vibration     5          0.906              1.139              0.544

                           ! Non-Optimized Parameters !
 Normal termination of Gaussian 16 at Tue Oct 15 10:47:03 2019.
