 Gaussian 16, Revision A.03,
 Gaussian 16:  ES64L-G16RevA.03 25-Dec-2016

 ------------------------------------------------
 #p opt=(calcall,ts,noeigen) freq b3lyp/6-31+g(d)
 ------------------------------------------------

 -------------------
 Title Card Required
 -------------------
 Symbolic Z-matrix:
 Charge =  0 Multiplicity = 1

 SCF Done:  E(RB3LYP) =  -270.430933011     A.U. after   16 cycles
 SCF Done:  E(RB3LYP) =  -270.430933273     A.U. after   10 cycles
 Optimization completed.
    -- Stationary point found.
 ******    1 imaginary frequencies (negative Signs) ******
    1 imaginary frequencies ignored.
 Normal termination of Gaussian 16 at Tue Oct 15 10:58:18 2019.

 ---------------------------------------------------------------------
 #P Geom=AllCheck Guess=TCheck SCRF=Check GenChk RB3LYP/6-31+G(d) Freq
 ---------------------------------------------------------------------

 Structure from the checkpoint file:  "tsb2.chk"
 -------------------
 Title Card Required
 -------------------
 Charge =  0 Multiplicity = 1

                         Standard orientation:
 ---------------------------------------------------------------------
 Center     Atomic      Atomic             Coordinates (Angstroms)
 Number     Number       Type             X           Y           Z
 ---------------------------------------------------------------------
      1          6           0        1.134344   -0.845141    0.261807
      2          1           0        1.210444   -0.890194    1.361274
      3          1           0        1.913778   -1.508789   -0.128951
      4          6           0       -0.173519   -1.317590   -0.212639
      5          8           0       -1.310511   -0.669922    0.019977
      6          6           0       -1.227023    0.763644    0.093352
      7          1           0       -1.986364    1.069522   -0.639085
      8          1           0       -1.641393    1.022528    1.085302
      9          6           0        0.091336    1.385089   -0.143136
     10          1           0        0.112715    2.429583    0.165907
     11          6           0        1.379037    0.653058   -0.140161
     12          1           0        1.870744    0.603397   -1.121181
     13          1           0        2.118870    1.128016    0.532126
     14          1           0       -0.339765   -2.329042   -0.570541
 ---------------------------------------------------------------------

 SCF Done:  E(RB3LYP) =  -270.430933273     A.U. after    1 cycles

 The electronic state is 1-A.
 Alpha  occ. eigenvalues --  -19.21496 -10.25985 -10.25216 -10.20590 -10.19559
 Alpha  occ. eigenvalues --  -10.17115  -1.09477  -0.80303  -0.77686  -0.66637
 Alpha  occ. eigenvalues --   -0.63971  -0.53715  -0.50802  -0.48569  -0.48209
 Alpha  occ. eigenvalues --   -0.44163  -0.41285  -0.40834  -0.37845  -0.35252
 Alpha  occ. eigenvalues --   -0.34278  -0.31297  -0.14605
 Alpha virt. eigenvalues --   -0.07449   0.00424   0.02438   0.02708   0.03394
 Alpha virt. eigenvalues --    0.04502   0.05176   0.06381   0.06890   0.07975
 Alpha virt. eigenvalues --    0.08837   0.09903   0.11431   0.11882   0.12618

 Mulliken charges:
               1
     1  C   -0.364992
     2  H    0.231742
     3  H    0.204729
     4  C   -0.092772
     5  O   -0.221020
     6  C   -0.435249
     7  H    0.229999
     8  H    0.210768
     9  C    0.175589
    10  H    0.169460
    11  C   -0.707817
    12  H    0.224259
    13  H    0.184267
    14  H    0.191035
 Sum of Mulliken charges =  -0.00000

 Dipole moment (field-independent basis, Debye):
    X=              0.4011    Y=             -0.6510    Z=              0.9127  Tot=              1.1907
 Quadrupole moment (field-independent basis, Debye-Ang):
   XX=            -37.1743   YY=            -37.1777   ZZ=            -39.3683
   XY=             -2.9848   XZ=             -0.0981   YZ=              2.1504

  Exact polarizability:  71.553  -0.118 108.751   1.204  -2.103  56.036
 Approx polarizability: 102.073  20.999 344.415   0.129  -7.437  79.719

 ******    1 imaginary frequencies (negative Signs) ******

                      1                      2                      3
                      A                      A                      A
 Frequencies --   -270.3918               144.8092               254.9200
 Red. masses --      1.8209                 1.8925                 2.2720
 Frc consts  --      0.0784                 0.0234                 0.0870
 IR Inten    --     15.4492                 9.8354                17.8860

                      4                      5                      6
                      A                      A                      A
 Frequencies --    430.7361               517.4617               550.3983
 Red. masses --      2.8275                 3.4037                 1.8651
 Frc consts  --      0.3091                 0.5370                 0.3329
 IR Inten    --     69.1886                 4.5984                 8.7189

                      7                      8                      9
                      A                      A                      A
 Frequencies --    668.5908               811.3403               820.9127
 Red. masses --      1.4755                 1.8705                 3.9651
 Frc consts  --      0.3886                 0.7255                 1.5743
 IR Inten    --     73.8528                19.7009                29.5327

                     10                     11                     12
                      A                      A                      A
 Frequencies --    832.7234               917.7475               931.9830
 Red. masses --      2.7002                 1.8736                 2.2231
 Frc consts  --      1.1032                 0.9298                 1.1377
 IR Inten    --      5.8535               109.3687                33.2350

                     13                     14                     15
                      A                      A                      A
 Frequencies --    992.0580              1007.5731              1056.1737
 Red. masses --      2.0161                 2.0628                 2.1996
 Frc consts  --      1.1691                 1.2338                 1.4457
 IR Inten    --      7.1654                17.8990                 6.1991

                     16                     17                     18
                      A                      A                      A
 Frequencies --   1146.6705              1156.9361              1190.2855
 Red. masses --      1.2196                 1.7718                 1.2542
 Frc consts  --      0.9448                 1.3973                 1.0469
 IR Inten    --     80.9391                19.5522                10.6863

                     19                     20                     21
                      A                      A                      A
 Frequencies --   1208.3900              1246.0551              1266.5302
 Red. masses --      1.1449                 1.3116                 1.6186
 Frc consts  --      0.9850                 1.1999                 1.5298
 IR Inten    --      6.8748                 2.1638                30.2178

                     22                     23                     24
                      A                      A                      A
 Frequencies --   1349.8506              1378.5122              1439.4973
 Red. masses --      1.3838                 1.4914                 2.0984
 Frc consts  --      1.4856                 1.6698                 2.5619
 IR Inten    --     22.1100                 8.7657                18.9881

                     25                     26                     27
                      A                      A                      A
 Frequencies --   1459.1854              1497.0216              1511.7181
 Red. masses --      1.2462                 1.4912                 1.1684
 Frc consts  --      1.5633                 1.9690                 1.5732
 IR Inten    --     12.6278                62.5593                16.7210

                     28                     29                     30
                      A                      A                      A
 Frequencies --   1533.6734              2935.8253              2961.7844
 Red. masses --      1.0989                 1.0786                 1.0746
 Frc consts  --      1.5229                 5.4773                 5.5542
 IR Inten    --      2.2453               135.6473                41.9798

                     31                     32                     33
                      A                      A                      A
 Frequencies --   2978.6903              3010.0224              3042.5370
 Red. masses --      1.0728                 1.0812                 1.0821
 Frc consts  --      5.6079                 5.7714                 5.9019
 IR Inten    --     33.7583                20.3264                 3.8798

                     34                     35                     36
                      A                      A                      A
 Frequencies --   3083.0930              3151.8676              3215.3544
 Red. masses --      1.0880                 1.0857                 1.0896
 Frc consts  --      6.0935                 6.3545                 6.6370
 IR Inten    --     30.4927                16.1634                 2.3126

 - Thermochemistry -
 -------------------
 Temperature   298.150 Kelvin.  Pressure   1.00000 Atm.
 Atom     1 has atomic number  6 and mass  12.00000

 Molecular mass:    84.05751 amu.
 Principal axes and moments of inertia in atomic units:
                           1         2         3
     Eigenvalues --   345.49949 400.52027 693.67272
           X            0.97866  -0.20547   0.00120
           Y            0.20544   0.97859   0.01287
           Z           -0.00382  -0.01235   0.99992
 This molecule is an asymmetric top.
 Rotational symmetry number  1.
 Rotational temperatures (Kelvin)      0.25069     0.21625     0.12486
 Rotational constants (GHZ):           5.22357     4.50599     2.60172
    1 imaginary frequencies ignored.
 Zero-point vibrational energy     309240.2 (Joules/Mol)
                                   73.91019 (Kcal/Mol)
 Warning -- explicit consideration of   5 degrees of freedom as
           vibrations may cause significant error
 Vibrational temperatures:    208.35   366.77   619.73   744.51   791.90
          (Kelvin)            961.95  1167.34  1181.11  1198.10  1320.43
                             1340.92  1427.35  1449.67  1519.60  1649.80
                             1664.57  1712.56  1738.60  1792.80  1822.25
                             1942.13  1983.37  2071.12  2099.44  2153.88
                             2175.03  2206.61  4224.00  4261.35  4285.67
                             4330.75  4377.53  4435.88  4534.83  4626.18

 Zero-point correction=                           0.117783 (Hartree/Particle)
 Thermal correction to Energy=                    0.123119
 Thermal correction to Enthalpy=                  0.124063
 Thermal correction to Gibbs Free Energy=         0.089140
 Sum of electronic and zero-point Energies=           -270.313150
 Sum of electronic and thermal Energies=              -270.307815
 Sum of electronic and thermal Enthalpies=            -270.306870
 Sum of electronic and thermal Free Energies=         -270.341794

                     E (Thermal)             CV                S
                      KCal/Mol        Cal/Mol-Kelvin    Cal/Mol-Kelvin
 Total                   77.258             19.988             73.502
 Electronic               0.000              0.000              0.000
 Translational            0.889              2.981             39.200
 Rotational               0.889              2.981             26.065
 Vibrational             75.481             14.026              8.237
 Vibration     1          0.616              1.908              2.739
 Vibration     2          0.665              1.754              1.696
 Vibration     3          0.792              1.403              0.856
 Vibration     4          0.872              1.211              0.616
 Vibration     5          0.906              1.139              0.543

 Optimization completed.
    -- Stationary point found.
 Normal termination of Gaussian 16 at Tue Oct 15 10:58:41 2019.
