 Gaussian 16, Revision A.03,
 Gaussian 16:  ES64L-G16RevA.03 25-Dec-2016

 -----------------------------------------------
 #p opt=(calcfc,ts,noeigen) freq b3lyp/6-31+g(d)
 -----------------------------------------------

 -------------------
 Title Card Required
 -------------------
 Symbolic Z-matrix:
 Charge =  0 Multiplicity = 1

 SCF Done:  E(RB3LYP) =  -270.359577157     A.U. after   15 cycles
 SCF Done:  E(RB3LYP) =  -270.384391501     A.U. after   13 cycles
 SCF Done:  E(RB3LYP) =  -270.406633681     A.U. after   13 cycles
 SCF Done:  E(RB3LYP) =  -270.418906164     A.U. after   13 cycles
 SCF Done:  E(RB3LYP) =  -270.437606125     A.U. after   13 cycles
 SCF Done:  E(RB3LYP) =  -270.450472953     A.U. after   14 cycles
 SCF Done:  E(RB3LYP) =  -270.459504423     A.U. after   13 cycles
 SCF Done:  E(RB3LYP) =  -270.469677072     A.U. after   13 cycles
 SCF Done:  E(RB3LYP) =  -270.471702555     A.U. after   13 cycles
 SCF Done:  E(RB3LYP) =  -270.465755634     A.U. after   13 cycles
 SCF Done:  E(RB3LYP) =  -270.475574471     A.U. after   11 cycles
 SCF Done:  E(RB3LYP) =  -270.475572784     A.U. after   10 cycles
 SCF Done:  E(RB3LYP) =  -270.472238659     A.U. after   13 cycles
 SCF Done:  E(RB3LYP) =  -270.474667901     A.U. after   12 cycles
 SCF Done:  E(RB3LYP) =  -270.474441026     A.U. after   13 cycles
 SCF Done:  E(RB3LYP) =  -270.475539974     A.U. after   12 cycles
 SCF Done:  E(RB3LYP) =  -270.475580983     A.U. after   11 cycles
 SCF Done:  E(RB3LYP) =  -270.475583441     A.U. after   10 cycles
 SCF Done:  E(RB3LYP) =  -270.475584116     A.U. after    9 cycles
 Optimization completed.
    -- Stationary point found.
 Normal termination of Gaussian 16 at Tue Oct 15 11:55:47 2019.

 ---------------------------------------------------------------------
 #P Geom=AllCheck Guess=TCheck SCRF=Check GenChk RB3LYP/6-31+G(d) Freq
 ---------------------------------------------------------------------

 Structure from the checkpoint file:  "tsb3.chk"
 -------------------
 Title Card Required
 -------------------
 Charge =  0 Multiplicity = 1

                         Standard orientation:
 ---------------------------------------------------------------------
 Center     Atomic      Atomic             Coordinates (Angstroms)
 Number     Number       Type             X           Y           Z
 ---------------------------------------------------------------------
      1          6           0        1.476705    0.799938    0.292868
      2          1           0        1.229275    0.970793    1.334792
      3          1           0        2.141207    1.518334   -0.182767
      4          6           0        1.304747   -0.453485   -0.267322
      5          8           0        0.539957   -1.356156    0.246654
      6          6           0       -1.294683   -0.915708   -0.178996
      7          1           0       -1.174776   -1.087836   -1.244386
      8          1           0       -1.748305   -1.735697    0.367129
      9          6           0       -1.381434    0.395640    0.310809
     10          1           0       -1.689496    0.535845    1.345402
     11          6           0       -0.707131    1.421842   -0.327027
     12          1           0       -0.485125    1.363256   -1.388272
     13          1           0       -0.668232    2.420087    0.100717
     14          1           0        1.686577   -0.624889   -1.287842
 ---------------------------------------------------------------------

 SCF Done:  E(RB3LYP) =  -270.475584116     A.U. after    1 cycles

 The electronic state is 1-A.
 Alpha  occ. eigenvalues --  -19.14949 -10.24148 -10.23344 -10.22322 -10.19798
 Alpha  occ. eigenvalues --  -10.19759  -1.01409  -0.80913  -0.74275  -0.68537
 Alpha  occ. eigenvalues --   -0.57831  -0.56498  -0.49659  -0.47102  -0.45320
 Alpha  occ. eigenvalues --   -0.44228  -0.40618  -0.39648  -0.38128  -0.37721
 Alpha  occ. eigenvalues --   -0.28317  -0.26518  -0.23645
 Alpha virt. eigenvalues --   -0.05155  -0.00957   0.01116   0.01960   0.02451
 Alpha virt. eigenvalues --    0.03539   0.04978   0.05962   0.06459   0.06841
 Alpha virt. eigenvalues --    0.07317   0.07557   0.09997   0.10557   0.11042

 Mulliken charges:
               1
     1  C   -0.442676
     2  H    0.218707
     3  H    0.196062
     4  C    0.053420
     5  O   -0.371108
     6  C   -0.497777
     7  H    0.218712
     8  H    0.218906
     9  C    0.118145
    10  H    0.183433
    11  C   -0.480361
    12  H    0.217408
    13  H    0.213083
    14  H    0.154047
 Sum of Mulliken charges =   0.00000

 Dipole moment (field-independent basis, Debye):
    X=             -0.7669    Y=              2.0466    Z=             -0.8796  Tot=              2.3559
 Quadrupole moment (field-independent basis, Debye-Ang):
   XX=            -38.7697   YY=            -38.3455   ZZ=            -35.6687
   XY=              3.6857   XZ=             -2.0592   YZ=              1.7299

  Exact polarizability:  89.802   3.645  75.266  -0.365   1.370  54.995
 Approx polarizability: 143.678   6.977 128.760  -0.018   0.025  80.106

 ******    1 imaginary frequencies (negative Signs) ******

                      1                      2                      3
                      A                      A                      A
 Frequencies --   -456.5092               165.8959               256.3591
 Red. masses --      8.7426                 2.9229                 6.5038
 Frc consts  --      1.0735                 0.0474                 0.2518
 IR Inten    --     23.9144                 3.9377                20.6743

                      4                      5                      6
                      A                      A                      A
 Frequencies --    301.2100               372.7300               418.1304
 Red. masses --      3.2429                 2.2279                 2.3416
 Frc consts  --      0.1733                 0.1824                 0.2412
 IR Inten    --      2.2693                 1.5251                 7.9963

                      7                      8                      9
                      A                      A                      A
 Frequencies --    458.2116               528.8933               728.6458
 Red. masses --      1.9009                 2.3616                 1.3545
 Frc consts  --      0.2352                 0.3892                 0.4237
 IR Inten    --      0.6015                14.1921                26.5396

                     10                     11                     12
                      A                      A                      A
 Frequencies --    791.6219               868.8586               889.6302
 Red. masses --      1.2279                 1.1457                 1.2166
 Frc consts  --      0.4534                 0.5096                 0.5673
 IR Inten    --      7.5386                31.6839                19.1238

                     13                     14                     15
                      A                      A                      A
 Frequencies --    955.1818               990.6863               995.9891
 Red. masses --      1.0892                 1.4259                 1.3215
 Frc consts  --      0.5855                 0.8245                 0.7723
 IR Inten    --      0.1161                28.5856                 5.1513

                     16                     17                     18
                      A                      A                      A
 Frequencies --   1004.3643              1032.4067              1052.0777
 Red. masses --      1.4030                 1.3369                 1.5970
 Frc consts  --      0.8338                 0.8396                 1.0415
 IR Inten    --     15.5861                 3.0564                 3.4832

                     19                     20                     21
                      A                      A                      A
 Frequencies --   1080.2063              1265.1374              1274.2810
 Red. masses --      1.2110                 1.6083                 2.2476
 Frc consts  --      0.8325                 1.5167                 2.1503
 IR Inten    --      3.4749                 7.3708                14.1511

                     22                     23                     24
                      A                      A                      A
 Frequencies --   1298.1771              1348.8126              1444.1773
 Red. masses --      1.8426                 1.5678                 1.3412
 Frc consts  --      1.8296                 1.6806                 1.6481
 IR Inten    --      0.6354                20.4846                10.3997

                     25                     26                     27
                      A                      A                      A
 Frequencies --   1478.0744              1543.9460              1557.0092
 Red. masses --      1.3947                 1.3861                 1.6841
 Frc consts  --      1.7952                 1.9467                 2.4054
 IR Inten    --     15.3747                 8.2182                15.4395

                     28                     29                     30
                      A                      A                      A
 Frequencies --   1626.6676              3004.1365              3163.6076
 Red. masses --      3.3256                 1.0848                 1.0596
 Frc consts  --      5.1846                 5.7680                 6.2481
 IR Inten    --     47.2108                90.5983                 9.4942

                     31                     32                     33
                      A                      A                      A
 Frequencies --   3168.2726              3173.3813              3177.9598
 Red. masses --      1.0704                 1.0741                 1.0613
 Frc consts  --      6.3306                 6.3728                 6.3149
 IR Inten    --     13.3207                 7.5342                 7.0561

                     34                     35                     36
                      A                      A                      A
 Frequencies --   3252.6038              3260.1081              3266.0485
 Red. masses --      1.1167                 1.1150                 1.1167
 Frc consts  --      6.9605                 6.9824                 7.0180
 IR Inten    --      5.1056                 8.3816                 5.7920

 - Thermochemistry -
 -------------------
 Temperature   298.150 Kelvin.  Pressure   1.00000 Atm.
 Atom     1 has atomic number  6 and mass  12.00000

 Molecular mass:    84.05751 amu.
 Principal axes and moments of inertia in atomic units:
                           1         2         3
     Eigenvalues --   376.59222 473.85753 746.23158
           X            0.98582   0.16702  -0.01616
           Y           -0.16671   0.98582   0.01932
           Z            0.01916  -0.01635   0.99968
 This molecule is an asymmetric top.
 Rotational symmetry number  1.
 Rotational temperatures (Kelvin)      0.22999     0.18278     0.11607
 Rotational constants (GHZ):           4.79230     3.80862     2.41847
    1 imaginary frequencies ignored.
 Zero-point vibrational energy     306205.1 (Joules/Mol)
                                   73.18478 (Kcal/Mol)
 Warning -- explicit consideration of   7 degrees of freedom as
           vibrations may cause significant error
 Vibrational temperatures:    238.69   368.84   433.37   536.28   601.60
          (Kelvin)            659.26   760.96  1048.36  1138.97  1250.09
                             1279.98  1374.29  1425.38  1433.01  1445.06
                             1485.40  1513.71  1554.18  1820.25  1833.41
                             1867.79  1940.64  2077.85  2126.62  2221.39
                             2240.19  2340.41  4322.28  4551.73  4558.44
                             4565.79  4572.38  4679.77  4690.57  4699.12

 Zero-point correction=                           0.116627 (Hartree/Particle)
 Thermal correction to Energy=                    0.122675
 Thermal correction to Enthalpy=                  0.123619
 Thermal correction to Gibbs Free Energy=         0.087473
 Sum of electronic and zero-point Energies=           -270.358957
 Sum of electronic and thermal Energies=              -270.352910
 Sum of electronic and thermal Enthalpies=            -270.351965
 Sum of electronic and thermal Free Energies=         -270.388111

                     E (Thermal)             CV                S
                      KCal/Mol        Cal/Mol-Kelvin    Cal/Mol-Kelvin
 Total                   76.979             22.738             76.075
 Electronic               0.000              0.000              0.000
 Translational            0.889              2.981             39.200
 Rotational               0.889              2.981             26.390
 Vibrational             75.202             16.776             10.485
 Vibration     1          0.624              1.884              2.481
 Vibration     2          0.666              1.752              1.686
 Vibration     3          0.693              1.671              1.410
 Vibration     4          0.744              1.528              1.069
 Vibration     5          0.781              1.431              0.898
 Vibration     6          0.816              1.343              0.771
 Vibration     7          0.884              1.186              0.590

                           ! Non-Optimized Parameters !
 Normal termination of Gaussian 16 at Tue Oct 15 11:56:10 2019.
