 Gaussian 16, Revision A.03,
 Gaussian 16:  ES64L-G16RevA.03 25-Dec-2016

 -----------------------------------------------
 #p opt=(calcfc,ts,noeigen) freq b3lyp/6-31+g(d)
 -----------------------------------------------

 -------------------
 Title Card Required
 -------------------
 Symbolic Z-matrix:
 Charge =  0 Multiplicity = 1

 SCF Done:  E(RB3LYP) =  -270.475584116     A.U. after   14 cycles
 SCF Done:  E(RB3LYP) =  -270.475584265     A.U. after    8 cycles
 Optimization completed.
    -- Stationary point found.
 Normal termination of Gaussian 16 at Wed Oct 16 01:24:37 2019.

 ---------------------------------------------------------------------
 #P Geom=AllCheck Guess=TCheck SCRF=Check GenChk RB3LYP/6-31+G(d) Freq
 ---------------------------------------------------------------------

 Structure from the checkpoint file:  "tsb4.chk"
 -------------------
 Title Card Required
 -------------------
 Charge =  0 Multiplicity = 1

                         Standard orientation:
 ---------------------------------------------------------------------
 Center     Atomic      Atomic             Coordinates (Angstroms)
 Number     Number       Type             X           Y           Z
 ---------------------------------------------------------------------
      1          6           0       -1.476640    0.800649   -0.292599
      2          1           0       -1.228620    0.971601   -1.334360
      3          1           0       -2.140901    1.519343    0.182918
      4          6           0       -1.305221   -0.452797    0.267439
      5          8           0       -0.540933   -1.355757   -0.246888
      6          6           0        1.294148   -0.916541    0.178946
      7          1           0        1.173960   -1.088771    1.244279
      8          1           0        1.747131   -1.736698   -0.367465
      9          6           0        1.382013    0.394774   -0.310709
     10          1           0        1.691177    0.534954   -1.344971
     11          6           0        0.708282    1.421636    0.326890
     12          1           0        0.485662    1.363623    1.388012
     13          1           0        0.670231    2.419754   -0.101243
     14          1           0       -1.686676   -0.624074    1.288124
 ---------------------------------------------------------------------

 SCF Done:  E(RB3LYP) =  -270.475584265     A.U. after    1 cycles

 The electronic state is 1-A.
 Alpha  occ. eigenvalues --  -19.14947 -10.24147 -10.23346 -10.22323 -10.19802
 Alpha  occ. eigenvalues --  -10.19756  -1.01406  -0.80912  -0.74274  -0.68539
 Alpha  occ. eigenvalues --   -0.57832  -0.56497  -0.49658  -0.47102  -0.45322
 Alpha  occ. eigenvalues --   -0.44226  -0.40616  -0.39648  -0.38129  -0.37720
 Alpha  occ. eigenvalues --   -0.28312  -0.26515  -0.23649
 Alpha virt. eigenvalues --   -0.05162  -0.00955   0.01116   0.01960   0.02451
 Alpha virt. eigenvalues --    0.03539   0.04977   0.05962   0.06459   0.06841
 Alpha virt. eigenvalues --    0.07317   0.07557   0.09998   0.10557   0.11042

 Mulliken charges:
               1
     1  C   -0.442509
     2  H    0.218691
     3  H    0.196034
     4  C    0.053310
     5  O   -0.371166
     6  C   -0.497833
     7  H    0.218739
     8  H    0.218908
     9  C    0.118219
    10  H    0.183448
    11  C   -0.480359
    12  H    0.217431
    13  H    0.213049
    14  H    0.154037
 Sum of Mulliken charges =  -0.00000

 Dipole moment (field-independent basis, Debye):
    X=              0.7701    Y=              2.0461    Z=              0.8802  Tot=              2.3567
 Quadrupole moment (field-independent basis, Debye-Ang):
   XX=            -38.7710   YY=            -38.3410   ZZ=            -35.6699
   XY=             -3.6847   XZ=             -2.0639   YZ=             -1.7299

  Exact polarizability:  89.814  -3.649  75.280  -0.368  -1.366  54.992
 Approx polarizability: 143.708  -6.980 128.790  -0.018  -0.012  80.100

 ******    1 imaginary frequencies (negative Signs) ******

                      1                      2                      3
                      A                      A                      A
 Frequencies --   -456.3533               165.8877               256.1809
 Red. masses --      8.7339                 2.9227                 6.5004
 Frc consts  --      1.0717                 0.0474                 0.2514
 IR Inten    --     23.8874                 3.9335                20.6442

                      4                      5                      6
                      A                      A                      A
 Frequencies --    301.1153               372.6568               418.0754
 Red. masses --      3.2442                 2.2268                 2.3413
 Frc consts  --      0.1733                 0.1822                 0.2411
 IR Inten    --      2.2649                 1.5235                 7.9890

                      7                      8                      9
                      A                      A                      A
 Frequencies --    458.1683               528.8729               728.4223
 Red. masses --      1.9012                 2.3616                 1.3547
 Frc consts  --      0.2351                 0.3892                 0.4235
 IR Inten    --      0.6010                14.2033                26.5375

                     10                     11                     12
                      A                      A                      A
 Frequencies --    791.5512               868.9102               889.4427
 Red. masses --      1.2278                 1.1459                 1.2166
 Frc consts  --      0.4532                 0.5097                 0.5670
 IR Inten    --      7.5488                31.5142                19.1757

                     13                     14                     15
                      A                      A                      A
 Frequencies --    955.1324               990.7024               995.9318
 Red. masses --      1.0894                 1.4274                 1.3203
 Frc consts  --      0.5856                 0.8254                 0.7716
 IR Inten    --      0.1169                28.3116                 5.2814

                     16                     17                     18
                      A                      A                      A
 Frequencies --   1004.3335              1032.3734              1052.0182
 Red. masses --      1.4023                 1.3366                 1.5980
 Frc consts  --      0.8334                 0.8393                 1.0420
 IR Inten    --     15.7233                 3.0522                 3.4929

                     19                     20                     21
                      A                      A                      A
 Frequencies --   1080.0914              1265.1730              1274.4014
 Red. masses --      1.2111                 1.6076                 2.2470
 Frc consts  --      0.8325                 1.5161                 2.1501
 IR Inten    --      3.4809                 7.3103                14.2438

                     22                     23                     24
                      A                      A                      A
 Frequencies --   1298.0065              1348.7130              1444.1689
 Red. masses --      1.8448                 1.5674                 1.3413
 Frc consts  --      1.8312                 1.6798                 1.6482
 IR Inten    --      0.6142                20.4924                10.4020

                     25                     26                     27
                      A                      A                      A
 Frequencies --   1478.0219              1543.9354              1557.0215
 Red. masses --      1.3944                 1.3852                 1.6854
 Frc consts  --      1.7947                 1.9455                 2.4073
 IR Inten    --     15.3807                 8.1886                15.4087

                     28                     29                     30
                      A                      A                      A
 Frequencies --   1626.5959              3004.1175              3163.6534
 Red. masses --      3.3252                 1.0848                 1.0596
 Frc consts  --      5.1836                 5.7679                 6.2483
 IR Inten    --     47.2143                90.6174                 9.5076

                     31                     32                     33
                      A                      A                      A
 Frequencies --   3168.3333              3173.4753              3177.9941
 Red. masses --      1.0705                 1.0739                 1.0613
 Frc consts  --      6.3316                 6.3719                 6.3154
 IR Inten    --     13.2863                 7.6152                 6.9806

                     34                     35                     36
                      A                      A                      A
 Frequencies --   3252.7135              3260.1462              3266.0899
 Red. masses --      1.1167                 1.1150                 1.1167
 Frc consts  --      6.9609                 6.9825                 7.0184
 IR Inten    --      5.0990                 8.3860                 5.7857

 - Thermochemistry -
 -------------------
 Temperature   298.150 Kelvin.  Pressure   1.00000 Atm.
 Atom     1 has atomic number  6 and mass  12.00000

 Molecular mass:    84.05751 amu.
 Principal axes and moments of inertia in atomic units:
                           1         2         3
     Eigenvalues --   376.58621 474.02171 746.41471
           X            0.98588  -0.16665  -0.01609
           Y            0.16634   0.98588  -0.01939
           Z            0.01909   0.01644   0.99968
 This molecule is an asymmetric top.
 Rotational symmetry number  1.
 Rotational temperatures (Kelvin)      0.23000     0.18272     0.11604
 Rotational constants (GHZ):           4.79237     3.80730     2.41788
    1 imaginary frequencies ignored.
 Zero-point vibrational energy     306198.7 (Joules/Mol)
                                   73.18325 (Kcal/Mol)
 Warning -- explicit consideration of   7 degrees of freedom as
           vibrations may cause significant error
 Vibrational temperatures:    238.68   368.59   433.24   536.17   601.52
          (Kelvin)            659.20   760.93  1048.04  1138.87  1250.17
                             1279.71  1374.22  1425.40  1432.92  1445.01
                             1485.36  1513.62  1554.01  1820.30  1833.58
                             1867.54  1940.50  2077.84  2126.54  2221.38
                             2240.21  2340.31  4322.26  4551.79  4558.52
                             4565.92  4572.42  4679.93  4690.62  4699.17

 Zero-point correction=                           0.116625 (Hartree/Particle)
 Thermal correction to Energy=                    0.122673
 Thermal correction to Enthalpy=                  0.123617
 Thermal correction to Gibbs Free Energy=         0.087470
 Sum of electronic and zero-point Energies=           -270.358959
 Sum of electronic and thermal Energies=              -270.352911
 Sum of electronic and thermal Enthalpies=            -270.351967
 Sum of electronic and thermal Free Energies=         -270.388115

                     E (Thermal)             CV                S
                      KCal/Mol        Cal/Mol-Kelvin    Cal/Mol-Kelvin
 Total                   76.978             22.740             76.079
 Electronic               0.000              0.000              0.000
 Translational            0.889              2.981             39.200
 Rotational               0.889              2.981             26.391
 Vibrational             75.201             16.778             10.488
 Vibration     1          0.624              1.884              2.482
 Vibration     2          0.666              1.752              1.688
 Vibration     3          0.693              1.672              1.411
 Vibration     4          0.744              1.528              1.069
 Vibration     5          0.781              1.431              0.899
 Vibration     6          0.816              1.343              0.771
 Vibration     7          0.884              1.186              0.590

 Optimization completed.
    -- Stationary point found.
 Normal termination of Gaussian 16 at Wed Oct 16 01:24:59 2019.
