 Gaussian 16, Revision A.03,
 Gaussian 16:  ES64L-G16RevA.03 25-Dec-2016

 --------------------------
 #p b3lyp/6-31+g** opt freq
 --------------------------

 -------------------
 Title Card Required
 -------------------
 Symbolic Z-matrix:
 Charge =  0 Multiplicity = 1

 SCF Done:  E(RB3LYP) =  -232.267679010     A.U. after   10 cycles
 SCF Done:  E(RB3LYP) =  -232.268392699     A.U. after    8 cycles
 Optimization completed.
    -- Stationary point found.
 Normal termination of Gaussian 16 at Fri Oct 11 19:09:08 2019.

 ----------------------------------------------------------------------
 #P Geom=AllCheck Guess=TCheck SCRF=Check GenChk RB3LYP/6-31+G(d,p) Fre
 q
 ----------------------------------------------------------------------

 Structure from the checkpoint file:  "benzene.chk"
 -------------------
 Title Card Required
 -------------------
 Charge =  0 Multiplicity = 1

                         Standard orientation:
 ---------------------------------------------------------------------
 Center     Atomic      Atomic             Coordinates (Angstroms)
 Number     Number       Type             X           Y           Z
 ---------------------------------------------------------------------
      1          6           0       -1.343366   -0.388444    0.000003
      2          6           0       -0.335167   -1.357603    0.000071
      3          6           0        1.008068   -0.969161   -0.000061
      4          6           0        1.343334    0.388557    0.000008
      5          6           0        0.335279    1.357573    0.000064
      6          6           0       -1.008148    0.969080   -0.000060
      7          1           0       -2.386789   -0.690289   -0.000063
      8          1           0       -0.595698   -2.412112    0.000079
      9          1           0        1.791222   -1.721825   -0.000140
     10          1           0        2.386827    0.690137    0.000013
     11          1           0        0.595561    2.412137    0.000012
     12          1           0       -1.791123    1.721940   -0.000051
 ---------------------------------------------------------------------

 SCF Done:  E(RB3LYP) =  -232.268392699     A.U. after    1 cycles

 The electronic state is 1-A.
 Alpha  occ. eigenvalues --  -10.19880 -10.19853 -10.19853 -10.19798 -10.19798
 Alpha  occ. eigenvalues --  -10.19771  -0.85699  -0.74992  -0.74991  -0.60673
 Alpha  occ. eigenvalues --   -0.60673  -0.52664  -0.46656  -0.44878  -0.42582
 Alpha  occ. eigenvalues --   -0.42581  -0.36973  -0.34897  -0.34895  -0.25762
 Alpha  occ. eigenvalues --   -0.25762
 Alpha virt. eigenvalues --   -0.01548  -0.01548   0.00846   0.02564   0.02564
 Alpha virt. eigenvalues --    0.04541   0.04541   0.06643   0.07780   0.07929
 Alpha virt. eigenvalues --    0.09202   0.09203   0.09905   0.12484   0.14273

 Mulliken charges:
               1
     1  C   -0.124040
     2  C   -0.124036
     3  C   -0.124073
     4  C   -0.124035
     5  C   -0.124040
     6  C   -0.124068
     7  H    0.124051
     8  H    0.124047
     9  H    0.124049
    10  H    0.124050
    11  H    0.124046
    12  H    0.124050
 Sum of Mulliken charges =  -0.00000

 Dipole moment (field-independent basis, Debye):
    X=              0.0000    Y=             -0.0000    Z=             -0.0001  Tot=              0.0001
 Quadrupole moment (field-independent basis, Debye-Ang):
   XX=            -32.2448   YY=            -32.2457   ZZ=            -40.3454
   XY=             -0.0001   XZ=             -0.0000   YZ=              0.0000

  Exact polarizability:  79.129   0.000  79.128   0.000  -0.000  41.309
 Approx polarizability: 127.160  -0.000 127.156   0.000  -0.000  57.663

                      1                      2                      3
                      A                      A                      A
 Frequencies --    411.5099               411.6149               619.3374
 Red. masses --      2.8684                 2.8684                 6.0751
 Frc consts  --      0.2862                 0.2863                 1.3730
 IR Inten    --      0.0000                 0.0000                 0.0000

                      4                      5                      6
                      A                      A                      A
 Frequencies --    619.3502               687.5318               712.2639
 Red. masses --      6.0749                 1.0848                 3.7056
 Frc consts  --      1.3730                 0.3021                 1.1076
 IR Inten    --      0.0000               124.1047                 0.0000

                      7                      8                      9
                      A                      A                      A
 Frequencies --    862.2188               862.2568               982.4776
 Red. masses --      1.2473                 1.2473                 1.3757
 Frc consts  --      0.5463                 0.5464                 0.7824
 IR Inten    --      0.0000                 0.0000                 0.0000

                     10                     11                     12
                      A                      A                      A
 Frequencies --    982.5641              1012.6931              1012.7010
 Red. masses --      1.3756                 2.1482                 1.9758
 Frc consts  --      0.7825                 1.2980                 1.1939
 IR Inten    --      0.0000                 0.0000                 0.0000

                     13                     14                     15
                      A                      A                      A
 Frequencies --   1016.9176              1060.7119              1060.8214
 Red. masses --      6.5425                 1.6993                 1.6990
 Frc consts  --      3.9862                 1.1265                 1.1265
 IR Inten    --      0.0000                 6.0519                 6.0519

                     16                     17                     18
                      A                      A                      A
 Frequencies --   1175.9847              1198.0096              1198.0326
 Red. masses --      1.0811                 1.1367                 1.1367
 Frc consts  --      0.8809                 0.9612                 0.9613
 IR Inten    --      0.0000                 0.0000                 0.0000

                     19                     20                     21
                      A                      A                      A
 Frequencies --   1352.9484              1377.2819              1514.6483
 Red. masses --      6.6390                 1.2473                 2.0173
 Frc consts  --      7.1601                 1.3940                 2.7268
 IR Inten    --      0.0000                 0.0000                 5.9107

                     22                     23                     24
                      A                      A                      A
 Frequencies --   1514.7382              1641.4443              1641.5476
 Red. masses --      2.0177                 5.3345                 5.3356
 Frc consts  --      2.7276                 8.4683                 8.4712
 IR Inten    --      5.9125                 0.0000                 0.0000

                     25                     26                     27
                      A                      A                      A
 Frequencies --   3174.4404              3183.9138              3184.0174
 Red. masses --      1.0838                 1.0877                 1.0877
 Frc consts  --      6.4345                 6.4965                 6.4970
 IR Inten    --      0.0004                 0.0001                 0.0001

                     28                     29                     30
                      A                      A                      A
 Frequencies --   3199.2865              3199.3895              3209.1884
 Red. masses --      1.0950                 1.0950                 1.0993
 Frc consts  --      6.6037                 6.6042                 6.6706
 IR Inten    --     42.0418                42.0172                 0.0003

 - Thermochemistry -
 -------------------
 Temperature   298.150 Kelvin.  Pressure   1.00000 Atm.
 Atom     1 has atomic number  6 and mass  12.00000

 Molecular mass:    78.04695 amu.
 Principal axes and moments of inertia in atomic units:
                           1         2         3
     Eigenvalues --   318.04005 318.04853 636.08858
           X            0.99917  -0.04063  -0.00000
           Y            0.04063   0.99917   0.00000
           Z            0.00000  -0.00000   1.00000
 This molecule is an asymmetric top.
 Rotational symmetry number  1.
 Rotational temperatures (Kelvin)      0.27234     0.27233     0.13617
 Rotational constants (GHZ):           5.67457     5.67442     2.83725
 Zero-point vibrational energy     263656.0 (Joules/Mol)
                                   63.01530 (Kcal/Mol)
 Warning -- explicit consideration of   4 degrees of freedom as
           vibrations may cause significant error
 Vibrational temperatures:    592.07   592.22   891.09   891.11   989.20
          (Kelvin)           1024.79  1240.54  1240.60  1413.57  1413.69
                             1457.04  1457.05  1463.12  1526.13  1526.29
                             1691.98  1723.67  1723.70  1946.59  1981.60
                             2179.24  2179.37  2361.67  2361.82  4567.31
                             4580.94  4581.09  4603.06  4603.21  4617.31

 Zero-point correction=                           0.100421 (Hartree/Particle)
 Thermal correction to Energy=                    0.104825
 Thermal correction to Enthalpy=                  0.105770
 Thermal correction to Gibbs Free Energy=         0.072948
 Sum of electronic and zero-point Energies=           -232.167971
 Sum of electronic and thermal Energies=              -232.163567
 Sum of electronic and thermal Enthalpies=            -232.162623
 Sum of electronic and thermal Free Energies=         -232.195445

                     E (Thermal)             CV                S
                      KCal/Mol        Cal/Mol-Kelvin    Cal/Mol-Kelvin
 Total                   65.779             17.216             69.079
 Electronic               0.000              0.000              0.000
 Translational            0.889              2.981             38.979
 Rotational               0.889              2.981             25.668
 Vibrational             64.001             11.254              4.433
 Vibration     1          0.775              1.445              0.921
 Vibration     2          0.776              1.445              0.921
 Vibration     3          0.979              0.991              0.418
 Vibration     4          0.979              0.991              0.418

 Optimization completed.
    -- Stationary point found.
 Normal termination of Gaussian 16 at Fri Oct 11 19:09:31 2019.
