 Gaussian 16, Revision A.03,
 Gaussian 16:  ES64L-G16RevA.03 25-Dec-2016

 -------------------------------------------
 #p b3lyp/6-31+g* opt=(calcfc,recalc=3) freq
 -------------------------------------------

 -------------------
 Title Card Required
 -------------------
 Symbolic Z-matrix:
 Charge = -1 Multiplicity = 1

 SCF Done:  E(RB3LYP) =  -3071.79826504     A.U. after   12 cycles
 SCF Done:  E(RB3LYP) =  -3071.85532817     A.U. after   13 cycles
 SCF Done:  E(RB3LYP) =  -3071.90977190     A.U. after   13 cycles
 SCF Done:  E(RB3LYP) =  -3071.91947768     A.U. after   12 cycles
 SCF Done:  E(RB3LYP) =  -3071.92393861     A.U. after   11 cycles
 SCF Done:  E(RB3LYP) =  -3071.92521329     A.U. after   11 cycles
 SCF Done:  E(RB3LYP) =  -3071.92675066     A.U. after   11 cycles
 SCF Done:  E(RB3LYP) =  -3071.92711229     A.U. after   11 cycles
 SCF Done:  E(RB3LYP) =  -3071.92730085     A.U. after    9 cycles
 SCF Done:  E(RB3LYP) =  -3071.92730720     A.U. after    8 cycles
 SCF Done:  E(RB3LYP) =  -3071.92730728     A.U. after    7 cycles
 Optimization completed.
    -- Stationary point found.
 Normal termination of Gaussian 16 at Mon Oct 14 23:36:56 2019.

 ---------------------------------------------------------------------
 #P Geom=AllCheck Guess=TCheck SCRF=Check GenChk RB3LYP/6-31+G(d) Freq
 ---------------------------------------------------------------------

 Structure from the checkpoint file:  "P_6-31+gs.chk"
 -------------------
 Title Card Required
 -------------------
 Charge = -1 Multiplicity = 1

                         Standard orientation:
 ---------------------------------------------------------------------
 Center     Atomic      Atomic             Coordinates (Angstroms)
 Number     Number       Type             X           Y           Z
 ---------------------------------------------------------------------
      1          6           0        0.000000   -0.000000   -0.287624
      2          1           0       -0.000000    1.036732   -0.604156
      3          1           0       -0.897836   -0.518366   -0.604156
      4          1           0        0.897836   -0.518366   -0.604156
      5         35           0       -0.000000    0.000000    1.733768
      6         17           0        0.000000   -0.000000   -3.361392
 ---------------------------------------------------------------------

 SCF Done:  E(RB3LYP) =  -3071.92730728     A.U. after    1 cycles

 The electronic state is 1-A1.
 Alpha  occ. eigenvalues -- -482.78641-101.25861 -61.74757 -56.26450 -56.26137
 Alpha  occ. eigenvalues --  -56.26137 -10.10072  -9.17217  -8.45472  -6.93024
 Alpha  occ. eigenvalues --   -6.92979  -6.92979  -6.40579  -6.39536  -6.39536
 Alpha  occ. eigenvalues --   -2.52157  -2.51863  -2.51863  -2.51032  -2.51032
 Alpha  occ. eigenvalues --   -0.66199  -0.53832  -0.50805  -0.30340  -0.30340
 Alpha  occ. eigenvalues --   -0.24701  -0.15810  -0.15810  -0.05643  -0.05510
 Alpha  occ. eigenvalues --   -0.05510
 Alpha virt. eigenvalues --    0.09858   0.11513   0.15035   0.15035   0.16897
 Alpha virt. eigenvalues --    0.20051   0.20647   0.20647   0.23574   0.25489
 Alpha virt. eigenvalues --    0.25489   0.28188   0.31058   0.31058   0.32139

 Mulliken charges:
               1
     1  C   -0.579877
     2  H    0.259010
     3  H    0.259010
     4  H    0.259010
     5  Br  -0.277434
     6  Cl  -0.919719
 Sum of Mulliken charges =  -1.00000

 Dipole moment (field-independent basis, Debye):
    X=             -0.0000    Y=              0.0000    Z=             11.3805  Tot=             11.3805
 Quadrupole moment (field-independent basis, Debye-Ang):
   XX=            -44.0065   YY=            -44.0065   ZZ=           -100.0424
   XY=              0.0000   XZ=              0.0000   YZ=             -0.0000

  Exact polarizability:  44.189  -0.000  44.190   0.000  -0.000 106.729
 Approx polarizability:  56.077  -0.000  56.077  -0.000   0.000 126.070

                      1                      2                      3
                     A1                      E                      E
 Frequencies --    106.4225               138.7992               138.8010
 Red. masses --     28.9944                 3.2830                 3.2830
 Frc consts  --      0.1935                 0.0373                 0.0373
 IR Inten    --     45.4666                 8.5994                 8.5993

                      4                      5                      6
                     A1                      E                      E
 Frequencies --    471.9203               930.8672               930.8674
 Red. masses --      7.1444                 1.1277                 1.1277
 Frc consts  --      0.9375                 0.5757                 0.5757
 IR Inten    --    233.0066                 1.2350                 1.2349

                      7                      8                      9
                     A1                      E                      E
 Frequencies --   1277.3257              1471.1276              1471.1276
 Red. masses --      1.0982                 1.0680                 1.0680
 Frc consts  --      1.0557                 1.3619                 1.3619
 IR Inten    --     54.6472                 7.9290                 7.9288

                     10                     11                     12
                     A1                      E                      E
 Frequencies --   3156.0522              3284.9605              3284.9606
 Red. masses --      1.0230                 1.1126                 1.1126
 Frc consts  --      6.0036                 7.0739                 7.0739
 IR Inten    --      5.3759                 0.5837                 0.5836

 - Thermochemistry -
 -------------------
 Temperature   298.150 Kelvin.  Pressure   1.00000 Atm.
 Atom     1 has atomic number  6 and mass  12.00000

 Molecular mass:   128.91066 amu.
 Principal axes and moments of inertia in atomic units:
                           1         2         3
     Eigenvalues --    11.604782265.969552265.96955
           X            0.00000   0.01220   0.99993
           Y            0.00000   0.99993  -0.01220
           Z            1.00000  -0.00000   0.00000
 This molecule is a prolate symmetric top.
 Rotational symmetry number  3.
 Rotational temperatures (Kelvin)      7.46364     0.03822     0.03822
 Rotational constants (GHZ):         155.51699     0.79645     0.79645
 Zero-point vibrational energy      99668.3 (Joules/Mol)
                                   23.82129 (Kcal/Mol)
 Warning -- explicit consideration of   4 degrees of freedom as
           vibrations may cause significant error
 Vibrational temperatures:    153.12   199.70   199.70   678.99  1339.31
          (Kelvin)           1339.31  1837.79  2116.62  2116.62  4540.86
                             4726.33  4726.33

 Zero-point correction=                           0.037962 (Hartree/Particle)
 Thermal correction to Energy=                    0.043208
 Thermal correction to Enthalpy=                  0.044152
 Thermal correction to Gibbs Free Energy=         0.009043
 Sum of electronic and zero-point Energies=          -3071.889346
 Sum of electronic and thermal Energies=             -3071.884100
 Sum of electronic and thermal Enthalpies=           -3071.883155
 Sum of electronic and thermal Free Energies=        -3071.918264

                     E (Thermal)             CV                S
                      KCal/Mol        Cal/Mol-Kelvin    Cal/Mol-Kelvin
 Total                   27.113             14.291             73.893
 Electronic               0.000              0.000              0.000
 Translational            0.889              2.981             40.475
 Rotational               0.889              2.981             23.408
 Vibrational             25.336              8.329             10.010
 Vibration     1          0.605              1.944              3.333
 Vibration     2          0.614              1.915              2.820
 Vibration     3          0.614              1.915              2.820
 Vibration     4          0.829              1.312              0.732

 Optimization completed.
    -- Stationary point found.
 Normal termination of Gaussian 16 at Mon Oct 14 23:37:01 2019.
