 Gaussian 16, Revision A.03,
 Gaussian 16:  ES64L-G16RevA.03 25-Dec-2016

 -------------------------------------------
 #p b3lyp/6-31+g* opt=(calcfc,recalc=3) freq
 -------------------------------------------

 -------------------
 Title Card Required
 -------------------
 Symbolic Z-matrix:
 Charge = -1 Multiplicity = 1

 SCF Done:  E(RB3LYP) =  -3071.64121339     A.U. after   13 cycles
 SCF Done:  E(RB3LYP) =  -3071.75232461     A.U. after   13 cycles
 SCF Done:  E(RB3LYP) =  -3071.87132118     A.U. after   13 cycles
 SCF Done:  E(RB3LYP) =  -3071.91694649     A.U. after   12 cycles
 SCF Done:  E(RB3LYP) =  -3071.92149411     A.U. after   10 cycles
 SCF Done:  E(RB3LYP) =  -3071.92450829     A.U. after   11 cycles
 SCF Done:  E(RB3LYP) =  -3071.92716338     A.U. after   12 cycles
 SCF Done:  E(RB3LYP) =  -3071.92776627     A.U. after   12 cycles
 SCF Done:  E(RB3LYP) =  -3071.92900104     A.U. after   12 cycles
 SCF Done:  E(RB3LYP) =  -3071.93031957     A.U. after   10 cycles
 SCF Done:  E(RB3LYP) =  -3071.93078534     A.U. after   10 cycles
 SCF Done:  E(RB3LYP) =  -3071.93096217     A.U. after   10 cycles
 SCF Done:  E(RB3LYP) =  -3071.93096835     A.U. after    8 cycles
 SCF Done:  E(RB3LYP) =  -3071.93096849     A.U. after    7 cycles
 Optimization completed.
    -- Stationary point found.
 Normal termination of Gaussian 16 at Mon Oct 14 23:37:39 2019.

 ---------------------------------------------------------------------
 #P Geom=AllCheck Guess=TCheck SCRF=Check GenChk RB3LYP/6-31+G(d) Freq
 ---------------------------------------------------------------------

 Structure from the checkpoint file:  "R_6-31+gs.chk"
 -------------------
 Title Card Required
 -------------------
 Charge = -1 Multiplicity = 1

                         Standard orientation:
 ---------------------------------------------------------------------
 Center     Atomic      Atomic             Coordinates (Angstroms)
 Number     Number       Type             X           Y           Z
 ---------------------------------------------------------------------
      1          6           0        0.000000   -0.000000   -1.388500
      2          1           0        0.000000    1.033058   -1.054221
      3          1           0        0.894655   -0.516529   -1.054221
      4          1           0       -0.894655   -0.516529   -1.054221
      5         17           0        0.000000   -0.000000   -3.244221
      6         35           0       -0.000000    0.000000    1.904155
 ---------------------------------------------------------------------

 SCF Done:  E(RB3LYP) =  -3071.93096849     A.U. after    1 cycles

 The electronic state is 1-A1.
 Alpha  occ. eigenvalues -- -482.64883-101.41634 -61.60972 -56.12620 -56.12590
 Alpha  occ. eigenvalues --  -56.12590 -10.10765  -9.33218  -8.31722  -7.09538
 Alpha  occ. eigenvalues --   -7.08678  -7.08678  -6.26209  -6.26177  -6.26177
 Alpha  occ. eigenvalues --   -2.37909  -2.37900  -2.37900  -2.37875  -2.37875
 Alpha  occ. eigenvalues --   -0.71647  -0.54808  -0.48106  -0.31258  -0.31258
 Alpha  occ. eigenvalues --   -0.27890  -0.18109  -0.18109  -0.05254  -0.05086
 Alpha  occ. eigenvalues --   -0.05086
 Alpha virt. eigenvalues --    0.11159   0.13114   0.17100   0.17100   0.17633
 Alpha virt. eigenvalues --    0.19102   0.20273   0.20273   0.21753   0.22718
 Alpha virt. eigenvalues --    0.22718   0.27956   0.30720   0.30720   0.33135

 Mulliken charges:
               1
     1  C   -0.674235
     2  H    0.262685
     3  H    0.262685
     4  H    0.262685
     5  Cl  -0.224050
     6  Br  -0.889769
 Sum of Mulliken charges =  -1.00000

 Dipole moment (field-independent basis, Debye):
    X=             -0.0000    Y=             -0.0000    Z=             -5.0125  Tot=              5.0125
 Quadrupole moment (field-independent basis, Debye-Ang):
   XX=            -44.8365   YY=            -44.8365   ZZ=            -77.4237
   XY=             -0.0000   XZ=              0.0000   YZ=              0.0000

  Exact polarizability:  49.833  -0.000  49.836  -0.000  -0.000  99.950
 Approx polarizability:  62.835  -0.000  62.835  -0.000  -0.000 114.525

                      1                      2                      3
                     A1                      E                      E
 Frequencies --     86.9344               112.6592               112.6609
 Red. masses --     15.1601                 3.1790                 3.1790
 Frc consts  --      0.0675                 0.0238                 0.0238
 IR Inten    --     12.1152                 6.3646                 6.3649

                      4                      5                      6
                     A1                      E                      E
 Frequencies --    582.4021               999.2030               999.2031
 Red. masses --      8.7588                 1.1551                 1.1551
 Frc consts  --      1.7504                 0.6795                 0.6795
 IR Inten    --    235.6556                 1.1269                 1.1267

                      7                      8                      9
                     A1                      E                      E
 Frequencies --   1344.2097              1479.9262              1479.9264
 Red. masses --      1.1030                 1.0622                 1.0622
 Frc consts  --      1.1743                 1.3706                 1.3706
 IR Inten    --     18.8870                 6.7764                 6.7764

                     10                     11                     12
                     A1                      E                      E
 Frequencies --   3141.5172              3260.1024              3260.1027
 Red. masses --      1.0248                 1.1115                 1.1115
 Frc consts  --      5.9589                 6.9604                 6.9604
 IR Inten    --     14.7130                 0.0172                 0.0172

 - Thermochemistry -
 -------------------
 Temperature   298.150 Kelvin.  Pressure   1.00000 Atm.
 Atom     1 has atomic number  6 and mass  12.00000

 Molecular mass:   128.91066 amu.
 Principal axes and moments of inertia in atomic units:
                           1         2         3
     Eigenvalues --    11.522692428.544042428.54404
           X            0.00000   0.11106   0.99381
           Y            0.00000   0.99381  -0.11106
           Z            1.00000  -0.00000   0.00000
 This molecule is a prolate symmetric top.
 Rotational symmetry number  3.
 Rotational temperatures (Kelvin)      7.51682     0.03566     0.03566
 Rotational constants (GHZ):         156.62504     0.74314     0.74314
 Zero-point vibrational energy     100838.3 (Joules/Mol)
                                   24.10093 (Kcal/Mol)
 Warning -- explicit consideration of   4 degrees of freedom as
           vibrations may cause significant error
 Vibrational temperatures:    125.08   162.09   162.09   837.95  1437.63
          (Kelvin)           1437.63  1934.02  2129.28  2129.28  4519.94
                             4690.56  4690.56

 Zero-point correction=                           0.038407 (Hartree/Particle)
 Thermal correction to Energy=                    0.043685
 Thermal correction to Enthalpy=                  0.044629
 Thermal correction to Gibbs Free Energy=         0.009040
 Sum of electronic and zero-point Energies=          -3071.892561
 Sum of electronic and thermal Energies=             -3071.887284
 Sum of electronic and thermal Enthalpies=           -3071.886339
 Sum of electronic and thermal Free Energies=        -3071.921929

                     E (Thermal)             CV                S
                      KCal/Mol        Cal/Mol-Kelvin    Cal/Mol-Kelvin
 Total                   27.413             13.912             74.904
 Electronic               0.000              0.000              0.000
 Translational            0.889              2.981             40.475
 Rotational               0.889              2.981             23.539
 Vibrational             25.635              7.951             10.890
 Vibration     1          0.601              1.958              3.728
 Vibration     2          0.607              1.939              3.223
 Vibration     3          0.607              1.939              3.223
 Vibration     4          0.939              1.069              0.481

 Optimization completed.
    -- Stationary point found.
 Normal termination of Gaussian 16 at Mon Oct 14 23:37:45 2019.
