 Gaussian 16, Revision A.03,
 Gaussian 16:  ES64L-G16RevA.03 25-Dec-2016

 -------------------------
 #p b3lyp/6-31+g* opt freq
 -------------------------

 ------------
 H2O opt freq
 ------------
 Symbolic Z-matrix:
 Charge =  0 Multiplicity = 1

 SCF Done:  E(RB3LYP) =  -76.4220916262     A.U. after   10 cycles
 SCF Done:  E(RB3LYP) =  -76.4225623457     A.U. after    9 cycles
 SCF Done:  E(RB3LYP) =  -76.4225734205     A.U. after    7 cycles
 Optimization completed.
    -- Stationary point found.
 Normal termination of Gaussian 16 at Fri Oct 11 18:51:50 2019.

 ---------------------------------------------------------------------
 #P Geom=AllCheck Guess=TCheck SCRF=Check GenChk RB3LYP/6-31+G(d) Freq
 ---------------------------------------------------------------------

 Structure from the checkpoint file:  "w1.chk"
 ------------
 H2O opt freq
 ------------
 Charge =  0 Multiplicity = 1

                         Standard orientation:
 ---------------------------------------------------------------------
 Center     Atomic      Atomic             Coordinates (Angstroms)
 Number     Number       Type             X           Y           Z
 ---------------------------------------------------------------------
      1          8           0       -0.000000   -0.000000    0.117290
      2          1           0       -0.000000   -0.771288   -0.469159
      3          1           0        0.000000    0.771288   -0.469159
 ---------------------------------------------------------------------

 SCF Done:  E(RB3LYP) =  -76.4225734205     A.U. after    1 cycles

 The electronic state is 1-A1.
 Alpha  occ. eigenvalues --  -19.16895  -1.02227  -0.54355  -0.39490  -0.31926
 Alpha virt. eigenvalues --    0.02489   0.11343   0.15547   0.15557   0.20367
 Alpha virt. eigenvalues --    0.23943   0.94705   1.03185   1.11170   1.11382
 Alpha virt. eigenvalues --    1.14373   1.24353   1.71234   1.72084   1.75828

 Mulliken charges:
               1
     1  O   -0.927582
     2  H    0.463791
     3  H    0.463791
 Sum of Mulliken charges =  -0.00000

 Dipole moment (field-independent basis, Debye):
    X=              0.0000    Y=             -0.0000    Z=             -2.2491  Tot=              2.2491
 Quadrupole moment (field-independent basis, Debye-Ang):
   XX=             -7.9451   YY=             -4.3534   ZZ=             -6.5336
   XY=              0.0000   XZ=             -0.0000   YZ=              0.0000

  Exact polarizability:   6.516  -0.000   7.749   0.000  -0.000   6.455
 Approx polarizability:   6.602   0.000   9.509  -0.000   0.000   7.456

                      1                      2                      3
                     A1                     A1                     B2
 Frequencies --   1662.7746              3736.1412              3860.4884
 Red. masses --      1.0834                 1.0445                 1.0829
 Frc consts  --      1.7649                 8.5900                 9.5083
 IR Inten    --     97.3661                 6.0414                52.9455

 - Thermochemistry -
 -------------------
 Temperature   298.150 Kelvin.  Pressure   1.00000 Atm.
 Atom     1 has atomic number  8 and mass  15.99491

 Molecular mass:    18.01056 amu.
 Principal axes and moments of inertia in atomic units:
                           1         2         3
     Eigenvalues --     2.19851   4.28199   6.48050
           X            0.00000  -0.00000   1.00000
           Y            1.00000  -0.00000  -0.00000
           Z            0.00000   1.00000   0.00000
 This molecule is an asymmetric top.
 Rotational symmetry number  2.
 Rotational temperatures (Kelvin)     39.39666    20.22749    13.36531
 Rotational constants (GHZ):         820.89307   421.47246   278.48794
 Zero-point vibrational energy      55383.5 (Joules/Mol)
                                   13.23698 (Kcal/Mol)
 Vibrational temperatures:   2392.36  5375.47  5554.38
          (Kelvin)

 Zero-point correction=                           0.021094 (Hartree/Particle)
 Thermal correction to Energy=                    0.023930
 Thermal correction to Enthalpy=                  0.024874
 Thermal correction to Gibbs Free Energy=         0.003434
 Sum of electronic and zero-point Energies=            -76.401479
 Sum of electronic and thermal Energies=               -76.398644
 Sum of electronic and thermal Enthalpies=             -76.397700
 Sum of electronic and thermal Free Energies=          -76.419140

                     E (Thermal)             CV                S
                      KCal/Mol        Cal/Mol-Kelvin    Cal/Mol-Kelvin
 Total                   15.016              6.004             45.124
 Electronic               0.000              0.000              0.000
 Translational            0.889              2.981             34.608
 Rotational               0.889              2.981             10.510
 Vibrational             13.239              0.042              0.006

 Optimization completed.
    -- Stationary point found.
 Normal termination of Gaussian 16 at Fri Oct 11 18:51:53 2019.
