 Gaussian 16, Revision A.03,
 Gaussian 16:  ES64L-G16RevA.03 25-Dec-2016

 ----------------------------------------------------------------------
 #p irc=(lqa,calcfc,recalc=5,maxpoint=30) b3lyp scrf=(cpcm,solvent=benz
 ene) def2tzvp em=gd3bj
 ----------------------------------------------------------------------

 -------------------
 Title Card Required
 -------------------
 Symbolic Z-matrix:
 Charge = -1 Multiplicity = 1

 SCF Done:  E(RB3LYP) =  -3074.47304584     A.U. after   11 cycles
 SCF Done:  E(RB3LYP) =  -3074.47337677     A.U. after   10 cycles
 SCF Done:  E(RB3LYP) =  -3074.47436962     A.U. after   10 cycles
 SCF Done:  E(RB3LYP) =  -3074.47600302     A.U. after   10 cycles
 SCF Done:  E(RB3LYP) =  -3074.47819011     A.U. after   10 cycles
 SCF Done:  E(RB3LYP) =  -3074.48079896     A.U. after   10 cycles
 SCF Done:  E(RB3LYP) =  -3074.48363928     A.U. after   10 cycles
 SCF Done:  E(RB3LYP) =  -3074.48646235     A.U. after   10 cycles
 SCF Done:  E(RB3LYP) =  -3074.48896772     A.U. after   10 cycles
 SCF Done:  E(RB3LYP) =  -3074.49080532     A.U. after    9 cycles
 SCF Done:  E(RB3LYP) =  -3074.48200121     A.U. after    9 cycles
 SCF Done:  E(RB3LYP) =  -3074.48288078     A.U. after    9 cycles
 SCF Done:  E(RB3LYP) =  -3074.48337413     A.U. after    9 cycles
 SCF Done:  E(RB3LYP) =  -3074.48375613     A.U. after    8 cycles
 SCF Done:  E(RB3LYP) =  -3074.48406400     A.U. after    8 cycles
 SCF Done:  E(RB3LYP) =  -3074.48430469     A.U. after    8 cycles
 SCF Done:  E(RB3LYP) =  -3074.48448601     A.U. after    8 cycles
 SCF Done:  E(RB3LYP) =  -3074.48461389     A.U. after    8 cycles
 SCF Done:  E(RB3LYP) =  -3074.48469416     A.U. after    8 cycles
 SCF Done:  E(RB3LYP) =  -3074.48473375     A.U. after    8 cycles

                          Input orientation:
 ---------------------------------------------------------------------
 Center     Atomic      Atomic             Coordinates (Angstroms)
 Number     Number       Type             X           Y           Z
 ---------------------------------------------------------------------
      1          6           0       -0.349225    0.001738   -0.005582
      2          1           0       -0.664787    0.877044   -0.554829
      3          1           0       -0.666709   -0.910167   -0.490402
      4          1           0       -0.670704    0.039135    1.025250
      5         17           0       -3.542051   -0.000191    0.001376
      6         35           0        1.648160   -0.000257    0.000494
 ---------------------------------------------------------------------

 Alpha  occ. eigenvalues -- -482.79016-101.31032 -62.43834 -56.25423 -56.25104
 Alpha  occ. eigenvalues --  -56.25104 -10.15470  -9.24219  -8.62941  -6.99827
 Alpha  occ. eigenvalues --   -6.99802  -6.99802  -6.45814  -6.44824  -6.44824
 Alpha  occ. eigenvalues --   -2.57277  -2.56994  -2.56994  -2.56201  -2.56201
 Alpha  occ. eigenvalues --   -0.73913  -0.61122  -0.59409  -0.37627  -0.37622
 Alpha  occ. eigenvalues --   -0.31935  -0.22880  -0.22880  -0.14474  -0.14473
 Alpha  occ. eigenvalues --   -0.14429
 Alpha virt. eigenvalues --    0.04925   0.11753   0.17091   0.17109   0.22575
 Alpha virt. eigenvalues --    0.26318   0.26325   0.29799   0.30773   0.30774
 Alpha virt. eigenvalues --    0.36079   0.36080   0.41532   0.41542   0.43618

 Mulliken charges:
               1
     1  C   -0.211354
     2  H    0.131280
     3  H    0.131447
     4  H    0.131761
     5  Cl  -0.930618
     6  Br  -0.252517
 Sum of Mulliken charges =  -1.00000

 Dipole moment (field-independent basis, Debye):
    X=             12.7913    Y=              0.0028    Z=             -0.0123  Tot=             12.7913
 Quadrupole moment (field-independent basis, Debye-Ang):
   XX=           -102.1883   YY=            -42.2655   ZZ=            -42.2646
   XY=             -0.0042   XZ=              0.0256   YZ=             -0.0000

  Exact polarizability:   0.000   0.000   0.000   0.000   0.000   0.000
 Approx polarizability: 109.942  -0.019  57.919   0.052   0.002  57.932

 Normal termination of Gaussian 16 at Fri Oct 18 03:30:32 2019.
