 Gaussian 16, Revision A.03,
 Gaussian 16:  ES64L-G16RevA.03 25-Dec-2016

 ----------------------------------------------------------------------
 #p opt=(gdiis,calcall,maxcycle=50,ts,noeigen) b3lyp def2tzvp em=gd3bj
 scrf=(smd,solvent=benzene)
 ----------------------------------------------------------------------

 -------------------
 Title Card Required
 -------------------
 Symbolic Z-matrix:
 Charge = -1 Multiplicity = 1

 SCF Done:  E(RB3LYP) =  -3074.47334162     A.U. after   11 cycles
 SCF Done:  E(RB3LYP) =  -3074.47294689     A.U. after   10 cycles
 SCF Done:  E(RB3LYP) =  -3074.47297104     A.U. after    8 cycles
 SCF Done:  E(RB3LYP) =  -3074.47297564     A.U. after    7 cycles
 Optimization completed.
    -- Stationary point found.

                         Standard orientation:
 ---------------------------------------------------------------------
 Center     Atomic      Atomic             Coordinates (Angstroms)
 Number     Number       Type             X           Y           Z
 ---------------------------------------------------------------------
      1          6           0       -0.759123    0.002294   -0.001352
      2          1           0       -0.768113   -0.081604   -1.068542
      3          1           0       -0.768049   -0.879999    0.604731
      4          1           0       -0.766795    0.968533    0.459447
      5         17           0       -3.135908   -0.000607    0.000383
      6         35           0        1.719090   -0.000296    0.000170
 ---------------------------------------------------------------------

 The electronic state is 1-A.
 Alpha  occ. eigenvalues -- -482.70886-101.36088 -62.35740 -56.17217 -56.17063
 Alpha  occ. eigenvalues --  -56.17063 -10.15801  -9.29286  -8.54824  -7.05100
 Alpha  occ. eigenvalues --   -7.04756  -7.04756  -6.37359  -6.36884  -6.36884
 Alpha  occ. eigenvalues --   -2.48873  -2.48745  -2.48745  -2.48367  -2.48367
 Alpha  occ. eigenvalues --   -0.67033  -0.63265  -0.58862  -0.37503  -0.37497
 Alpha  occ. eigenvalues --   -0.24365  -0.18403  -0.18402  -0.16994  -0.16994
 Alpha  occ. eigenvalues --   -0.16255
 Alpha virt. eigenvalues --    0.03432   0.11999   0.18228   0.18230   0.27064
 Alpha virt. eigenvalues --    0.27072   0.27204   0.33624   0.35093   0.35093
 Alpha virt. eigenvalues --    0.40183   0.40187   0.41290   0.43042   0.43043

 Mulliken charges:
               1
     1  C   -0.156033
     2  H    0.155312
     3  H    0.155234
     4  H    0.155300
     5  Cl  -0.665140
     6  Br  -0.644673
 Sum of Mulliken charges =  -1.00000

 Dipole moment (field-independent basis, Debye):
    X=              3.6004    Y=              0.0065    Z=             -0.0042  Tot=              3.6004
 Quadrupole moment (field-independent basis, Debye-Ang):
   XX=            -83.9664   YY=            -42.5305   ZZ=            -42.5311
   XY=             -0.0071   XZ=              0.0071   YZ=              0.0001

  Exact polarizability: 151.073   0.011  42.337  -0.004   0.001  42.331
 Approx polarizability: 208.436   0.001  60.844   0.003  -0.001  60.841

 ******    1 imaginary frequencies (negative Signs) ******

                      1                      2                      3
                      A                      A                      A
 Frequencies --   -361.4211               164.5965               168.2797
 Red. masses --     12.5803                 4.2301                 4.8532
 Frc consts  --      0.9682                 0.0675                 0.0810
 IR Inten    --   1252.6595                10.9176                 9.6170

                      4                      5                      6
                      A                      A                      A
 Frequencies --    168.7445               897.4688               907.0290
 Red. masses --     16.1634                 1.0109                 1.0109
 Frc consts  --      0.2712                 0.4797                 0.4900
 IR Inten    --      7.0166                 0.2516                 0.3697

                      7                      8                      9
                      A                      A                      A
 Frequencies --   1023.2065              1405.7697              1408.7275
 Red. masses --      1.0379                 1.1039                 1.1028
 Frc consts  --      0.6403                 1.2853                 1.2894
 IR Inten    --    155.1615                 4.9929                 5.1552

                     10                     11                     12
                      A                      A                      A
 Frequencies --   3197.3100              3390.4810              3394.7162
 Red. masses --      1.0079                 1.1237                 1.1231
 Frc consts  --      6.0706                 7.6108                 7.6254
 IR Inten    --      0.2400                 5.9912                 5.7722

 - Thermochemistry -
 -------------------
 Temperature   298.150 Kelvin.  Pressure   1.00000 Atm.
 Atom     1 has atomic number  6 and mass  12.00000

 Molecular mass:   128.91066 amu.
 Principal axes and moments of inertia in atomic units:
                           1         2         3
     Eigenvalues --    12.372672092.237552092.23969
           X            1.00000  -0.00000   0.00001
           Y            0.00000   0.99918   0.04053
           Z           -0.00001  -0.04053   0.99918
 This molecule is an asymmetric top.
 Rotational symmetry number  1.
 Rotational temperatures (Kelvin)      7.00042     0.04140     0.04140
 Rotational constants (GHZ):         145.86516     0.86259     0.86259
    1 imaginary frequencies ignored.
 Zero-point vibrational energy      96456.9 (Joules/Mol)
                                   23.05375 (Kcal/Mol)
 Warning -- explicit consideration of   3 degrees of freedom as
           vibrations may cause significant error
 Vibrational temperatures:    236.82   242.12   242.79  1291.26  1305.01
          (Kelvin)           1472.17  2022.59  2026.84  4600.22  4878.15
                             4884.24

 Zero-point correction=                           0.036738 (Hartree/Particle)
 Thermal correction to Energy=                    0.041568
 Thermal correction to Enthalpy=                  0.042512
 Thermal correction to Gibbs Free Energy=         0.007462
 Sum of electronic and zero-point Energies=          -3074.436237
 Sum of electronic and thermal Energies=             -3074.431408
 Sum of electronic and thermal Enthalpies=           -3074.430463
 Sum of electronic and thermal Free Energies=        -3074.465513

                     E (Thermal)             CV                S
                      KCal/Mol        Cal/Mol-Kelvin    Cal/Mol-Kelvin
 Total                   26.084             13.163             73.769
 Electronic               0.000              0.000              0.000
 Translational            0.889              2.981             40.475
 Rotational               0.889              2.981             25.496
 Vibrational             24.307              7.202              7.797
 Vibration     1          0.623              1.886              2.496
 Vibration     2          0.625              1.882              2.455
 Vibration     3          0.625              1.881              2.449

 Normal termination of Gaussian 16 at Fri Oct 18 03:09:36 2019.
