 Gaussian 16, Revision A.03,
 Gaussian 16:  ES64L-G16RevA.03 25-Dec-2016

 ----------------------------------------------------------------------
 #p opt=(calcall,ts,noeigen) freq b3lyp def2tzvp em=gd3bj scrf=(smd,sol
 vent=dichloromethane)
 ----------------------------------------------------------------------

 -------------------
 Title Card Required
 -------------------
 Symbolic Z-matrix:
 Charge = -1 Multiplicity = 1

 SCF Done:  E(RB3LYP) =  -3074.49801273     A.U. after   11 cycles
 SCF Done:  E(RB3LYP) =  -3074.49707914     A.U. after   10 cycles
 SCF Done:  E(RB3LYP) =  -3074.49705238     A.U. after    8 cycles
 SCF Done:  E(RB3LYP) =  -3074.49707687     A.U. after    7 cycles
 SCF Done:  E(RB3LYP) =  -3074.49707464     A.U. after    7 cycles
 SCF Done:  E(RB3LYP) =  -3074.49706307     A.U. after    7 cycles
 SCF Done:  E(RB3LYP) =  -3074.49706961     A.U. after    7 cycles
 SCF Done:  E(RB3LYP) =  -3074.49707191     A.U. after    6 cycles
 SCF Done:  E(RB3LYP) =  -3074.49705775     A.U. after    6 cycles
 SCF Done:  E(RB3LYP) =  -3074.49704974     A.U. after    7 cycles
 SCF Done:  E(RB3LYP) =  -3074.49704974     A.U. after    6 cycles
 SCF Done:  E(RB3LYP) =  -3074.49705601     A.U. after    7 cycles
 SCF Done:  E(RB3LYP) =  -3074.49705155     A.U. after    6 cycles
 SCF Done:  E(RB3LYP) =  -3074.49707659     A.U. after    7 cycles
 SCF Done:  E(RB3LYP) =  -3074.49707241     A.U. after    7 cycles
 SCF Done:  E(RB3LYP) =  -3074.49705745     A.U. after    7 cycles
 SCF Done:  E(RB3LYP) =  -3074.49704936     A.U. after    7 cycles
 SCF Done:  E(RB3LYP) =  -3074.49705524     A.U. after    6 cycles
 SCF Done:  E(RB3LYP) =  -3074.49705575     A.U. after    6 cycles
 Optimization completed.
    -- Stationary point found.
 ******    1 imaginary frequencies (negative Signs) ******
    1 imaginary frequencies ignored.
 Normal termination of Gaussian 16 at Fri Oct 18 01:24:36 2019.

 --------------------------------------------------------------------
 #P Geom=AllCheck Guess=TCheck SCRF=Check GenChk RB3LYP/def2TZVP Freq
 --------------------------------------------------------------------

 Structure from the checkpoint file:  "ts_smd_dichloromethane_maugccpvtz.chk"
 -------------------
 Title Card Required
 -------------------
 Charge = -1 Multiplicity = 1

                         Standard orientation:
 ---------------------------------------------------------------------
 Center     Atomic      Atomic             Coordinates (Angstroms)
 Number     Number       Type             X           Y           Z
 ---------------------------------------------------------------------
      1          6           0       -0.787924    0.000154   -0.000466
      2          1           0       -0.772959   -1.055864    0.177624
      3          1           0       -0.773611    0.682659    0.824822
      4          1           0       -0.772622    0.374023   -1.004016
      5         17           0       -3.131842   -0.000057    0.000122
      6         35           0        1.722515   -0.000022    0.000065
 ---------------------------------------------------------------------

 SCF Done:  E(RB3LYP) =  -3074.49705575     A.U. after    1 cycles

 The electronic state is 1-A.
 Alpha  occ. eigenvalues -- -482.74799-101.41385 -62.39656 -56.21126 -56.20981
 Alpha  occ. eigenvalues --  -56.20981 -10.20147  -9.34587  -8.58741  -7.10407
 Alpha  occ. eigenvalues --   -7.10054  -7.10054  -6.41256  -6.40811  -6.40811
 Alpha  occ. eigenvalues --   -2.52774  -2.52655  -2.52655  -2.52301  -2.52301
 Alpha  occ. eigenvalues --   -0.71981  -0.67581  -0.63157  -0.41772  -0.41764
 Alpha  occ. eigenvalues --   -0.29084  -0.23623  -0.23622  -0.21046  -0.21046
 Alpha  occ. eigenvalues --   -0.20685
 Alpha virt. eigenvalues --   -0.00961   0.07935   0.14169   0.14173   0.22759
 Alpha virt. eigenvalues --    0.22763   0.23136   0.28867   0.30964   0.30964
 Alpha virt. eigenvalues --    0.35892   0.35893   0.36715   0.38902   0.38903

 Mulliken charges:
               1
     1  C   -0.172332
     2  H    0.165273
     3  H    0.165070
     4  H    0.165346
     5  Cl  -0.659361
     6  Br  -0.663996
 Sum of Mulliken charges =  -1.00000

 Dipole moment (field-independent basis, Debye):
    X=              3.2970    Y=              0.0003    Z=             -0.0014  Tot=              3.2970
 Quadrupole moment (field-independent basis, Debye-Ang):
   XX=            -84.0075   YY=            -42.5304   ZZ=            -42.5317
   XY=             -0.0011   XZ=             -0.0001   YZ=             -0.0003

  Exact polarizability: 165.533   0.005  46.159  -0.003   0.002  46.149
 Approx polarizability: 205.849  -0.001  60.867  -0.002   0.001  60.864

 ******    1 imaginary frequencies (negative Signs) ******

                      1                      2                      3
                      A                      A                      A
 Frequencies --   -385.4028               167.0932               169.5513
 Red. masses --     12.5793                 8.6347                 6.1657
 Frc consts  --      1.1009                 0.1420                 0.1044
 IR Inten    --   1522.5956                 8.2048                10.5198

                      4                      5                      6
                      A                      A                      A
 Frequencies --    170.6535               903.6432               904.3700
 Red. masses --      4.3657                 1.0113                 1.0113
 Frc consts  --      0.0749                 0.4865                 0.4873
 IR Inten    --     13.2580                 0.0209                 0.0201

                      7                      8                      9
                      A                      A                      A
 Frequencies --   1029.4744              1392.8598              1395.4494
 Red. masses --      1.0391                 1.1042                 1.1037
 Frc consts  --      0.6488                 1.2622                 1.2663
 IR Inten    --    180.4167                 7.0794                 6.8421

                     10                     11                     12
                      A                      A                      A
 Frequencies --   3192.0890              3387.3738              3388.0897
 Red. masses --      1.0079                 1.1236                 1.1233
 Frc consts  --      6.0506                 7.5958                 7.5975
 IR Inten    --      0.3666                 8.2153                 8.1971

 - Thermochemistry -
 -------------------
 Temperature   298.150 Kelvin.  Pressure   1.00000 Atm.
 Atom     1 has atomic number  6 and mass  12.00000

 Molecular mass:   128.91066 amu.
 Principal axes and moments of inertia in atomic units:
                           1         2         3
     Eigenvalues --    12.383102094.340782094.34377
           X            1.00000  -0.00000  -0.00000
           Y            0.00000   1.00000   0.00071
           Z            0.00000  -0.00071   1.00000
 This molecule is an asymmetric top.
 Rotational symmetry number  1.
 Rotational temperatures (Kelvin)      6.99453     0.04136     0.04136
 Rotational constants (GHZ):         145.74229     0.86172     0.86172
    1 imaginary frequencies ignored.
 Zero-point vibrational energy      96303.3 (Joules/Mol)
                                   23.01703 (Kcal/Mol)
 Warning -- explicit consideration of   3 degrees of freedom as
           vibrations may cause significant error
 Vibrational temperatures:    240.41   243.95   245.53  1300.14  1301.19
          (Kelvin)           1481.18  2004.01  2007.74  4592.70  4873.68
                             4874.71

 Zero-point correction=                           0.036680 (Hartree/Particle)
 Thermal correction to Energy=                    0.041499
 Thermal correction to Enthalpy=                  0.042443
 Thermal correction to Gibbs Free Energy=         0.007424
 Sum of electronic and zero-point Energies=          -3074.460376
 Sum of electronic and thermal Energies=             -3074.455556
 Sum of electronic and thermal Enthalpies=           -3074.454612
 Sum of electronic and thermal Free Energies=        -3074.489632

                     E (Thermal)             CV                S
                      KCal/Mol        Cal/Mol-Kelvin    Cal/Mol-Kelvin
 Total                   26.041             13.154             73.706
 Electronic               0.000              0.000              0.000
 Translational            0.889              2.981             40.475
 Rotational               0.889              2.981             25.499
 Vibrational             24.264              7.193              7.731
 Vibration     1          0.624              1.883              2.468
 Vibration     2          0.625              1.880              2.440
 Vibration     3          0.626              1.879              2.428

 Optimization completed.
    -- Stationary point found.
 Normal termination of Gaussian 16 at Fri Oct 18 01:25:07 2019.
