 Gaussian 16, Revision A.03,
 Gaussian 16:  ES64L-G16RevA.03 25-Dec-2016

 ----------------------------------------------------------------------
 #p b3lyp/6-31g* em=gd3bj opt=(ts,calcfc,noeigen) freq scrf=(smd,solven
 t=benzene)
 ----------------------------------------------------------------------

 -------------------
 Title Card Required
 -------------------
 Symbolic Z-matrix:
 Charge =  0 Multiplicity = 3

 SCF Done:  E(UB3LYP) =  -305.779457960     A.U. after   19 cycles
 SCF Done:  E(UB3LYP) =  -305.829170075     A.U. after   15 cycles
 SCF Done:  E(UB3LYP) =  -305.871378965     A.U. after   14 cycles
 SCF Done:  E(UB3LYP) =  -305.902435825     A.U. after   13 cycles
 SCF Done:  E(UB3LYP) =  -305.921270893     A.U. after   13 cycles
 SCF Done:  E(UB3LYP) =  -305.930899536     A.U. after   13 cycles
 SCF Done:  E(UB3LYP) =  -305.930880393     A.U. after   13 cycles
 SCF Done:  E(UB3LYP) =  -305.934345717     A.U. after   13 cycles
 SCF Done:  E(UB3LYP) =  -305.933123347     A.U. after   13 cycles
 SCF Done:  E(UB3LYP) =  -305.937558637     A.U. after   14 cycles
 SCF Done:  E(UB3LYP) =  -305.938527344     A.U. after   13 cycles
 SCF Done:  E(UB3LYP) =  -305.939460127     A.U. after   12 cycles
 SCF Done:  E(UB3LYP) =  -305.939107599     A.U. after   13 cycles
 SCF Done:  E(UB3LYP) =  -305.939542328     A.U. after   12 cycles
 SCF Done:  E(UB3LYP) =  -305.939523595     A.U. after   11 cycles
 SCF Done:  E(UB3LYP) =  -305.939559844     A.U. after   12 cycles
 SCF Done:  E(UB3LYP) =  -305.939561538     A.U. after   11 cycles
 SCF Done:  E(UB3LYP) =  -305.939561923     A.U. after   10 cycles
 SCF Done:  E(UB3LYP) =  -305.939561908     A.U. after    8 cycles
 Optimization completed.
    -- Stationary point found.
 Normal termination of Gaussian 16 at Thu Nov 21 13:27:56 2019.

 --------------------------------------------------------------------
 #P Geom=AllCheck Guess=TCheck SCRF=Check GenChk UB3LYP/6-31G(d) Freq
 --------------------------------------------------------------------

 Structure from the checkpoint file:  "carbene3.chk"
 -------------------
 Title Card Required
 -------------------
 Charge =  0 Multiplicity = 3

                         Standard orientation:
 ---------------------------------------------------------------------
 Center     Atomic      Atomic             Coordinates (Angstroms)
 Number     Number       Type             X           Y           Z
 ---------------------------------------------------------------------
      1          6           0       -0.004079   -0.929244    0.100100
      2          6           0        0.745425    1.265965    0.065878
      3          6           0       -0.756653    1.289592    0.082280
      4          1           0        1.461758    2.055303   -0.093298
      5          1           0       -1.318894    2.056623   -0.457827
      6          7           0       -1.105402   -0.038193   -0.221998
      7          7           0        1.142425   -0.054004    0.309030
      8          6           0       -2.454656   -0.515919   -0.013178
      9          1           0       -3.157641    0.199550   -0.450249
     10          1           0       -2.592367   -1.481454   -0.511596
     11          1           0       -2.698225   -0.629652    1.056116
     12          6           0        2.429011   -0.523111   -0.165680
     13          1           0        2.474555   -0.587237   -1.267260
     14          1           0        3.206393    0.168977    0.171861
     15          1           0        2.648363   -1.509362    0.256267
     16          1           0        0.178119   -1.625939   -0.733018
     17          1           0       -0.215511   -1.525128    1.003378
 ---------------------------------------------------------------------

 SCF Done:  E(UB3LYP) =  -305.939561908     A.U. after    1 cycles

 The electronic state is 3-A.
 Alpha  occ. eigenvalues --  -14.35064 -14.34806 -10.24121 -10.20690 -10.20594
 Alpha  occ. eigenvalues --  -10.18154 -10.17362  -0.97827  -0.89492  -0.73843
 Alpha  occ. eigenvalues --   -0.71774  -0.66907  -0.57628  -0.57236  -0.50424
 Alpha  occ. eigenvalues --   -0.48806  -0.43897  -0.43561  -0.42806  -0.41891
 Alpha  occ. eigenvalues --   -0.39143  -0.38166  -0.36304  -0.35704  -0.31507
 Alpha  occ. eigenvalues --   -0.28024  -0.16350  -0.07298
 Alpha virt. eigenvalues --    0.09790   0.10687   0.14245   0.15016   0.15239
 Alpha virt. eigenvalues --    0.15782   0.16915   0.17497   0.17909   0.18643
 Alpha virt. eigenvalues --    0.18777   0.21099   0.23021   0.25231   0.29111

  Beta  occ. eigenvalues --  -14.34451 -14.34280 -10.24154 -10.20689 -10.20576
  Beta  occ. eigenvalues --  -10.17092 -10.16228  -0.96699  -0.88306  -0.72806
  Beta  occ. eigenvalues --   -0.70812  -0.66368  -0.56143  -0.55757  -0.49812
  Beta  occ. eigenvalues --   -0.47518  -0.43269  -0.42967  -0.42174  -0.41287
  Beta  occ. eigenvalues --   -0.38696  -0.37651  -0.35987  -0.34665  -0.26280
  Beta  occ. eigenvalues --   -0.23996
  Beta virt. eigenvalues --   -0.04543   0.06545   0.10234   0.10918   0.14540
  Beta virt. eigenvalues --    0.15568   0.15744   0.16079   0.17452   0.18112
  Beta virt. eigenvalues --    0.18425   0.19028   0.19643   0.21616   0.23808

 Mulliken charges and spin densities:
               1          2
     1  C    0.054138  -0.032876
     2  C   -0.094737   0.822481
     3  C   -0.092667   0.731430
     4  H    0.136993  -0.046020
     5  H    0.113796   0.001449
     6  N   -0.378403   0.227727
     7  N   -0.381643   0.187123
     8  C   -0.305962  -0.014052
     9  H    0.171045   0.002328
    10  H    0.158079  -0.000620
    11  H    0.151547   0.031091
    12  C   -0.315177  -0.009004
    13  H    0.143094   0.032463
    14  H    0.170130   0.002340
    15  H    0.159955   0.001193
    16  H    0.155476   0.031450
    17  H    0.154336   0.031496
 Sum of Mulliken charges =   0.00000   2.00000

 Dipole moment (field-independent basis, Debye):
    X=              0.1042    Y=             -2.3155    Z=             -0.7995  Tot=              2.4518
 Quadrupole moment (field-independent basis, Debye-Ang):
   XX=            -37.3856   YY=            -42.1337   ZZ=            -46.4161
   XY=              0.8598   XZ=             -0.1713   YZ=             -1.4383

  Exact polarizability:  90.241  -0.862  87.720  -0.661  -1.113  52.528
 Approx polarizability:  95.160  -0.905 106.414   1.412   0.070  68.244

 ******    1 imaginary frequencies (negative Signs) ******

                      1                      2                      3
                      A                      A                      A
 Frequencies --   -660.6520                57.5069               147.0347
 Red. masses --      1.2997                 2.4194                 2.3929
 Frc consts  --      0.3342                 0.0047                 0.0305
 IR Inten    --     54.7496                 0.8563                 4.3407

                      4                      5                      6
                      A                      A                      A
 Frequencies --    194.8215               225.5768               241.7046
 Red. masses --      1.0654                 1.1390                 2.3318
 Frc consts  --      0.0238                 0.0341                 0.0803
 IR Inten    --      0.1870                 3.6214                20.0048

                      7                      8                      9
                      A                      A                      A
 Frequencies --    278.3192               294.7372               406.1974
 Red. masses --      2.5240                 3.0307                 2.4324
 Frc consts  --      0.1152                 0.1551                 0.2365
 IR Inten    --      1.6787                16.7930                 0.4231

                     10                     11                     12
                      A                      A                      A
 Frequencies --    564.0764               661.1737               840.0340
 Red. masses --      4.7750                 4.4635                 1.6199
 Frc consts  --      0.8952                 1.1496                 0.6735
 IR Inten    --      1.2277                10.4951                19.2127

                     13                     14                     15
                      A                      A                      A
 Frequencies --    919.0031               940.8404              1013.5868
 Red. masses --      2.7302                 4.9712                 1.7756
 Frc consts  --      1.3585                 2.5926                 1.0748
 IR Inten    --     14.2231                 0.5015                 1.2194

                     16                     17                     18
                      A                      A                      A
 Frequencies --   1056.2419              1084.7040              1099.9588
 Red. masses --      1.5128                 1.5463                 1.4729
 Frc consts  --      0.9944                 1.0719                 1.0500
 IR Inten    --      9.3135                10.3700                 2.0604

                     19                     20                     21
                      A                      A                      A
 Frequencies --   1140.5745              1152.1778              1195.9373
 Red. masses --      1.2059                 1.3816                 1.7526
 Frc consts  --      0.9243                 1.0807                 1.4769
 IR Inten    --      1.8173                54.5632                31.6594

                     22                     23                     24
                      A                      A                      A
 Frequencies --   1208.8467              1235.5658              1301.8265
 Red. masses --      1.7246                 2.0704                 1.5589
 Frc consts  --      1.4848                 1.8623                 1.5566
 IR Inten    --     31.7860                 0.4257                 5.9612

                     25                     26                     27
                      A                      A                      A
 Frequencies --   1320.0827              1361.5481              1416.4673
 Red. masses --      3.0419                 2.5269                 3.8436
 Frc consts  --      3.1232                 2.7599                 4.5436
 IR Inten    --     50.3517                37.4368                14.6806

                     28                     29                     30
                      A                      A                      A
 Frequencies --   1446.4755              1479.1476              1489.7409
 Red. masses --      1.9128                 1.1681                 1.3087
 Frc consts  --      2.3580                 1.5057                 1.7113
 IR Inten    --     41.1029                 2.3092                 0.1555

                     31                     32                     33
                      A                      A                      A
 Frequencies --   1511.0934              1513.6412              1526.5939
 Red. masses --      1.0452                 1.0468                 1.0734
 Frc consts  --      1.4062                 1.4131                 1.4739
 IR Inten    --      6.6518                15.8422                21.6560

                     34                     35                     36
                      A                      A                      A
 Frequencies --   1529.5025              1535.9761              2969.9953
 Red. masses --      1.1186                 1.0892                 1.0572
 Frc consts  --      1.5417                 1.5140                 5.4942
 IR Inten    --      0.5207                 0.4637               114.5637

                     37                     38                     39
                      A                      A                      A
 Frequencies --   2980.5085              2994.6701              3005.3462
 Red. masses --      1.0598                 1.0564                 1.1014
 Frc consts  --      5.5470                 5.5816                 5.8612
 IR Inten    --     83.7990               132.6223                58.3617

                     40                     41                     42
                      A                      A                      A
 Frequencies --   3076.4784              3092.0168              3092.6323
 Red. masses --      1.0892                 1.0802                 1.0755
 Frc consts  --      6.0737                 6.0849                 6.0605
 IR Inten    --    107.1328                49.4257                35.9025

                     43                     44                     45
                      A                      A                      A
 Frequencies --   3134.9903              3136.5231              3299.7379
 Red. masses --      1.1043                 1.1037                 1.0946
 Frc consts  --      6.3944                 6.3974                 7.0223
 IR Inten    --     23.7086                23.3039                10.1901

 - Thermochemistry -
 -------------------
 Temperature   298.150 Kelvin.  Pressure   1.00000 Atm.
 Atom     1 has atomic number  6 and mass  12.00000

 Molecular mass:    98.08440 amu.
 Principal axes and moments of inertia in atomic units:
                           1         2         3
     Eigenvalues --   294.71399 897.925941137.97723
           X            0.99997   0.00178  -0.00796
           Y           -0.00190   0.99988  -0.01557
           Z            0.00793   0.01559   0.99985
 This molecule is an asymmetric top.
 Rotational symmetry number  1.
 Rotational temperatures (Kelvin)      0.29389     0.09646     0.07611
 Rotational constants (GHZ):           6.12370     2.00990     1.58592
    1 imaginary frequencies ignored.
 Zero-point vibrational energy     383843.5 (Joules/Mol)
                                   91.74079 (Kcal/Mol)
 Warning -- explicit consideration of   9 degrees of freedom as
           vibrations may cause significant error
 Vibrational temperatures:     82.74   211.55   280.30   324.55   347.76
          (Kelvin)            400.44   424.06   584.43   811.58   951.28
                             1208.62  1322.24  1353.66  1458.33  1519.70
                             1560.65  1582.60  1641.03  1657.73  1720.69
                             1739.26  1777.70  1873.04  1899.30  1958.96
                             2037.98  2081.16  2128.16  2143.40  2174.13
                             2177.79  2196.43  2200.61  2209.93  4273.16
                             4288.29  4308.66  4324.02  4426.37  4448.72
                             4449.61  4510.55  4512.76  4747.59

 Zero-point correction=                           0.146198 (Hartree/Particle)
 Thermal correction to Energy=                    0.154021
 Thermal correction to Enthalpy=                  0.154965
 Thermal correction to Gibbs Free Energy=         0.113104
 Sum of electronic and zero-point Energies=           -305.793364
 Sum of electronic and thermal Energies=              -305.785541
 Sum of electronic and thermal Enthalpies=            -305.784597
 Sum of electronic and thermal Free Energies=         -305.826458

                     E (Thermal)             CV                S
                      KCal/Mol        Cal/Mol-Kelvin    Cal/Mol-Kelvin
 Total                   96.650             27.076             88.105
 Electronic               0.000              0.000              2.183
 Translational            0.889              2.981             39.660
 Rotational               0.889              2.981             27.201
 Vibrational             94.872             21.114             19.060
 Vibration     1          0.596              1.974              4.541
 Vibration     2          0.617              1.906              2.710
 Vibration     3          0.635              1.847              2.181
 Vibration     4          0.650              1.802              1.914
 Vibration     5          0.658              1.776              1.790
 Vibration     6          0.679              1.714              1.544
 Vibration     7          0.689              1.684              1.447
 Vibration     8          0.771              1.457              0.940
 Vibration     9          0.920              1.109              0.516

 Optimization completed.
    -- Stationary point found.
 Normal termination of Gaussian 16 at Thu Nov 21 13:28:47 2019.
